+ 0.8 0 3 tcp 40 ------- 0 0.0 4.0 0 0
- 0.8 0 3 tcp 40 ------- 0 0.0 4.0 0 0
r 0.810107 0 3 tcp 40 ------- 0 0.0 4.0 0 0
+ 0.810107 3 1 tcp 40 ------- 0 0.0 4.0 0 0
- 0.810107 3 1 tcp 40 ------- 0 0.0 4.0 0 0
r 1.34344 3 1 tcp 40 ------- 0 0.0 4.0 0 0
+ 1.34344 1 2 tcp 40 ------- 0 0.0 4.0 0 0
- 1.34344 1 2 tcp 40 ------- 0 0.0 4.0 0 0
r 1.876773 1 2 tcp 40 ------- 0 0.0 4.0 0 0
+ 1.876773 2 4 tcp 40 ------- 0 0.0 4.0 0 0
- 1.876773 2 4 tcp 40 ------- 0 0.0 4.0 0 0
r 1.88688 2 4 tcp 40 ------- 0 0.0 4.0 0 0
+ 1.88688 4 2 ack 40 ------- 0 4.0 0.0 0 1
- 1.88688 4 2 ack 40 ------- 0 4.0 0.0 0 1
r 1.896987 4 2 ack 40 ------- 0 4.0 0.0 0 1
+ 1.896987 2 1 ack 40 ------- 0 4.0 0.0 0 1
- 1.896987 2 1 ack 40 ------- 0 4.0 0.0 0 1
r 2.43032 2 1 ack 40 ------- 0 4.0 0.0 0 1
+ 2.43032 1 3 ack 40 ------- 0 4.0 0.0 0 1
- 2.43032 1 3 ack 40 ------- 0 4.0 0.0 0 1
r 2.963653 1 3 ack 40 ------- 0 4.0 0.0 0 1
+ 2.963653 3 0 ack 40 ------- 0 4.0 0.0 0 1
- 2.963653 3 0 ack 40 ------- 0 4.0 0.0 0 1
r 2.97376 3 0 ack 40 ------- 0 4.0 0.0 0 1
+ 2.97376 0 3 tcp 1040 ------- 0 0.0 4.0 1 2
- 2.97376 0 3 tcp 1040 ------- 0 0.0 4.0 1 2
+ 2.97376 0 3 tcp 1040 ------- 0 0.0 4.0 2 3
- 2.976533 0 3 tcp 1040 ------- 0 0.0 4.0 2 3
r 2.986533 0 3 tcp 1040 ------- 0 0.0 4.0 1 2
+ 2.986533 3 1 tcp 1040 ------- 0 0.0 4.0 1 2
- 2.986533 3 1 tcp 1040 ------- 0 0.0 4.0 1 2
r 2.989307 0 3 tcp 1040 ------- 0 0.0 4.0 2 3
+ 2.989307 3 1 tcp 1040 ------- 0 0.0 4.0 2 3
- 3.8532 3 1 tcp 1040 ------- 0 0.0 4.0 2 3
r 4.3532 3 1 tcp 1040 ------- 0 0.0 4.0 1 2
+ 4.3532 1 2 tcp 1040 ------- 0 0.0 4.0 1 2
- 4.3532 1 2 tcp 1040 ------- 0 0.0 4.0 1 2
r 5.219867 3 1 tcp 1040 ------- 0 0.0 4.0 2 3
+ 5.219867 1 2 tcp 1040 ------- 0 0.0 4.0 2 3
- 5.219867 1 2 tcp 1040 ------- 0 0.0 4.0 2 3
r 5.719867 1 2 tcp 1040 ------- 0 0.0 4.0 1 2
+ 5.719867 2 4 tcp 1040 ------- 0 0.0 4.0 1 2
- 5.719867 2 4 tcp 1040 ------- 0 0.0 4.0 1 2
r 5.73264 2 4 tcp 1040 ------- 0 0.0 4.0 1 2
+ 5.73264 4 2 ack 40 ------- 0 4.0 0.0 1 4
- 5.73264 4 2 ack 40 ------- 0 4.0 0.0 1 4
r 5.742747 4 2 ack 40 ------- 0 4.0 0.0 1 4
+ 5.742747 2 1 ack 40 ------- 0 4.0 0.0 1 4
- 5.742747 2 1 ack 40 ------- 0 4.0 0.0 1 4
r 6.27608 2 1 ack 40 ------- 0 4.0 0.0 1 4
+ 6.27608 1 3 ack 40 ------- 0 4.0 0.0 1 4
- 6.27608 1 3 ack 40 ------- 0 4.0 0.0 1 4
r 6.586533 1 2 tcp 1040 ------- 0 0.0 4.0 2 3
+ 6.586533 2 4 tcp 1040 ------- 0 0.0 4.0 2 3
- 6.586533 2 4 tcp 1040 ------- 0 0.0 4.0 2 3
r 6.599307 2 4 tcp 1040 ------- 0 0.0 4.0 2 3
+ 6.599307 4 2 ack 40 ------- 0 4.0 0.0 2 5
- 6.599307 4 2 ack 40 ------- 0 4.0 0.0 2 5
r 6.609413 4 2 ack 40 ------- 0 4.0 0.0 2 5
+ 6.609413 2 1 ack 40 ------- 0 4.0 0.0 2 5
- 6.609413 2 1 ack 40 ------- 0 4.0 0.0 2 5
r 6.809413 1 3 ack 40 ------- 0 4.0 0.0 1 4
+ 6.809413 3 0 ack 40 ------- 0 4.0 0.0 1 4
- 6.809413 3 0 ack 40 ------- 0 4.0 0.0 1 4
r 6.81952 3 0 ack 40 ------- 0 4.0 0.0 1 4
+ 6.81952 0 3 tcp 1040 ------- 0 0.0 4.0 3 6
- 6.81952 0 3 tcp 1040 ------- 0 0.0 4.0 3 6
+ 6.81952 0 3 tcp 1040 ------- 0 0.0 4.0 4 7
- 6.822293 0 3 tcp 1040 ------- 0 0.0 4.0 4 7
r 6.832293 0 3 tcp 1040 ------- 0 0.0 4.0 3 6
+ 6.832293 3 1 tcp 1040 ------- 0 0.0 4.0 3 6
- 6.832293 3 1 tcp 1040 ------- 0 0.0 4.0 3 6
r 6.835067 0 3 tcp 1040 ------- 0 0.0 4.0 4 7
+ 6.835067 3 1 tcp 1040 ------- 0 0.0 4.0 4 7
r 7.142747 2 1 ack 40 ------- 0 4.0 0.0 2 5
+ 7.142747 1 3 ack 40 ------- 0 4.0 0.0 2 5
- 7.142747 1 3 ack 40 ------- 0 4.0 0.0 2 5
r 7.67608 1 3 ack 40 ------- 0 4.0 0.0 2 5
+ 7.67608 3 0 ack 40 ------- 0 4.0 0.0 2 5
- 7.67608 3 0 ack 40 ------- 0 4.0 0.0 2 5
r 7.686187 3 0 ack 40 ------- 0 4.0 0.0 2 5
+ 7.686187 0 3 tcp 1040 ------- 0 0.0 4.0 5 8
- 7.686187 0 3 tcp 1040 ------- 0 0.0 4.0 5 8
+ 7.686187 0 3 tcp 1040 ------- 0 0.0 4.0 6 9
- 7.68896 0 3 tcp 1040 ------- 0 0.0 4.0 6 9
- 7.69896 3 1 tcp 1040 ------- 0 0.0 4.0 4 7
r 7.69896 0 3 tcp 1040 ------- 0 0.0 4.0 5 8
+ 7.69896 3 1 tcp 1040 ------- 0 0.0 4.0 5 8
r 7.701733 0 3 tcp 1040 ------- 0 0.0 4.0 6 9
+ 7.701733 3 1 tcp 1040 ------- 0 0.0 4.0 6 9
r 8.19896 3 1 tcp 1040 ------- 0 0.0 4.0 3 6
+ 8.19896 1 2 tcp 1040 ------- 0 0.0 4.0 3 6
- 8.19896 1 2 tcp 1040 ------- 0 0.0 4.0 3 6
- 8.565627 3 1 tcp 1040 ------- 0 0.0 4.0 5 8
r 9.065627 3 1 tcp 1040 ------- 0 0.0 4.0 4 7
+ 9.065627 1 2 tcp 1040 ------- 0 0.0 4.0 4 7
- 9.065627 1 2 tcp 1040 ------- 0 0.0 4.0 4 7
- 9.432293 3 1 tcp 1040 ------- 0 0.0 4.0 6 9
r 9.565627 1 2 tcp 1040 ------- 0 0.0 4.0 3 6
+ 9.565627 2 4 tcp 1040 ------- 0 0.0 4.0 3 6
- 9.565627 2 4 tcp 1040 ------- 0 0.0 4.0 3 6
r 9.5784 2 4 tcp 1040 ------- 0 0.0 4.0 3 6
+ 9.5784 4 2 ack 40 ------- 0 4.0 0.0 3 10
- 9.5784 4 2 ack 40 ------- 0 4.0 0.0 3 10
r 9.588507 4 2 ack 40 ------- 0 4.0 0.0 3 10
+ 9.588507 2 1 ack 40 ------- 0 4.0 0.0 3 10
- 9.588507 2 1 ack 40 ------- 0 4.0 0.0 3 10
r 9.932293 3 1 tcp 1040 ------- 0 0.0 4.0 5 8
+ 9.932293 1 2 tcp 1040 ------- 0 0.0 4.0 5 8
- 9.932293 1 2 tcp 1040 ------- 0 0.0 4.0 5 8
r 10.12184 2 1 ack 40 ------- 0 4.0 0.0 3 10
+ 10.12184 1 3 ack 40 ------- 0 4.0 0.0 3 10
- 10.12184 1 3 ack 40 ------- 0 4.0 0.0 3 10
r 10.432293 1 2 tcp 1040 ------- 0 0.0 4.0 4 7
+ 10.432293 2 4 tcp 1040 ------- 0 0.0 4.0 4 7
- 10.432293 2 4 tcp 1040 ------- 0 0.0 4.0 4 7
r 10.445067 2 4 tcp 1040 ------- 0 0.0 4.0 4 7
+ 10.445067 4 2 ack 40 ------- 0 4.0 0.0 4 11
- 10.445067 4 2 ack 40 ------- 0 4.0 0.0 4 11
r 10.455173 4 2 ack 40 ------- 0 4.0 0.0 4 11
+ 10.455173 2 1 ack 40 ------- 0 4.0 0.0 4 11
- 10.455173 2 1 ack 40 ------- 0 4.0 0.0 4 11
r 10.655173 1 3 ack 40 ------- 0 4.0 0.0 3 10
+ 10.655173 3 0 ack 40 ------- 0 4.0 0.0 3 10
- 10.655173 3 0 ack 40 ------- 0 4.0 0.0 3 10
r 10.66528 3 0 ack 40 ------- 0 4.0 0.0 3 10
+ 10.66528 0 3 tcp 1040 ------- 0 0.0 4.0 7 12
- 10.66528 0 3 tcp 1040 ------- 0 0.0 4.0 7 12
+ 10.66528 0 3 tcp 1040 ------- 0 0.0 4.0 8 13
- 10.668053 0 3 tcp 1040 ------- 0 0.0 4.0 8 13
r 10.678053 0 3 tcp 1040 ------- 0 0.0 4.0 7 12
+ 10.678053 3 1 tcp 1040 ------- 0 0.0 4.0 7 12
- 10.678053 3 1 tcp 1040 ------- 0 0.0 4.0 7 12
r 10.680827 0 3 tcp 1040 ------- 0 0.0 4.0 8 13
+ 10.680827 3 1 tcp 1040 ------- 0 0.0 4.0 8 13
r 10.79896 3 1 tcp 1040 ------- 0 0.0 4.0 6 9
+ 10.79896 1 2 tcp 1040 ------- 0 0.0 4.0 6 9
- 10.79896 1 2 tcp 1040 ------- 0 0.0 4.0 6 9
r 10.988507 2 1 ack 40 ------- 0 4.0 0.0 4 11
+ 10.988507 1 3 ack 40 ------- 0 4.0 0.0 4 11
- 10.988507 1 3 ack 40 ------- 0 4.0 0.0 4 11
r 11.29896 1 2 tcp 1040 ------- 0 0.0 4.0 5 8
+ 11.29896 2 4 tcp 1040 ------- 0 0.0 4.0 5 8
- 11.29896 2 4 tcp 1040 ------- 0 0.0 4.0 5 8
r 11.311733 2 4 tcp 1040 ------- 0 0.0 4.0 5 8
+ 11.311733 4 2 ack 40 ------- 0 4.0 0.0 5 14
- 11.311733 4 2 ack 40 ------- 0 4.0 0.0 5 14
r 11.32184 4 2 ack 40 ------- 0 4.0 0.0 5 14
+ 11.32184 2 1 ack 40 ------- 0 4.0 0.0 5 14
- 11.32184 2 1 ack 40 ------- 0 4.0 0.0 5 14
r 11.52184 1 3 ack 40 ------- 0 4.0 0.0 4 11
+ 11.52184 3 0 ack 40 ------- 0 4.0 0.0 4 11
- 11.52184 3 0 ack 40 ------- 0 4.0 0.0 4 11
r 11.531947 3 0 ack 40 ------- 0 4.0 0.0 4 11
+ 11.531947 0 3 tcp 1040 ------- 0 0.0 4.0 9 15
- 11.531947 0 3 tcp 1040 ------- 0 0.0 4.0 9 15
+ 11.531947 0 3 tcp 1040 ------- 0 0.0 4.0 10 16
- 11.53472 0 3 tcp 1040 ------- 0 0.0 4.0 10 16
- 11.54472 3 1 tcp 1040 ------- 0 0.0 4.0 8 13
r 11.54472 0 3 tcp 1040 ------- 0 0.0 4.0 9 15
+ 11.54472 3 1 tcp 1040 ------- 0 0.0 4.0 9 15
r 11.547493 0 3 tcp 1040 ------- 0 0.0 4.0 10 16
+ 11.547493 3 1 tcp 1040 ------- 0 0.0 4.0 10 16
r 11.855173 2 1 ack 40 ------- 0 4.0 0.0 5 14
+ 11.855173 1 3 ack 40 ------- 0 4.0 0.0 5 14
- 11.855173 1 3 ack 40 ------- 0 4.0 0.0 5 14
r 12.04472 3 1 tcp 1040 ------- 0 0.0 4.0 7 12
+ 12.04472 1 2 tcp 1040 ------- 0 0.0 4.0 7 12
- 12.04472 1 2 tcp 1040 ------- 0 0.0 4.0 7 12
r 12.165627 1 2 tcp 1040 ------- 0 0.0 4.0 6 9
+ 12.165627 2 4 tcp 1040 ------- 0 0.0 4.0 6 9
- 12.165627 2 4 tcp 1040 ------- 0 0.0 4.0 6 9
r 12.1784 2 4 tcp 1040 ------- 0 0.0 4.0 6 9
+ 12.1784 4 2 ack 40 ------- 0 4.0 0.0 6 17
- 12.1784 4 2 ack 40 ------- 0 4.0 0.0 6 17
r 12.188507 4 2 ack 40 ------- 0 4.0 0.0 6 17
+ 12.188507 2 1 ack 40 ------- 0 4.0 0.0 6 17
- 12.188507 2 1 ack 40 ------- 0 4.0 0.0 6 17
r 12.388507 1 3 ack 40 ------- 0 4.0 0.0 5 14
+ 12.388507 3 0 ack 40 ------- 0 4.0 0.0 5 14
- 12.388507 3 0 ack 40 ------- 0 4.0 0.0 5 14
r 12.398613 3 0 ack 40 ------- 0 4.0 0.0 5 14
+ 12.398613 0 3 tcp 1040 ------- 0 0.0 4.0 11 18
- 12.398613 0 3 tcp 1040 ------- 0 0.0 4.0 11 18
+ 12.398613 0 3 tcp 1040 ------- 0 0.0 4.0 12 19
- 12.401387 0 3 tcp 1040 ------- 0 0.0 4.0 12 19
- 12.411387 3 1 tcp 1040 ------- 0 0.0 4.0 9 15
r 12.411387 0 3 tcp 1040 ------- 0 0.0 4.0 11 18
+ 12.411387 3 1 tcp 1040 ------- 0 0.0 4.0 11 18
r 12.41416 0 3 tcp 1040 ------- 0 0.0 4.0 12 19
+ 12.41416 3 1 tcp 1040 ------- 0 0.0 4.0 12 19
r 12.72184 2 1 ack 40 ------- 0 4.0 0.0 6 17
+ 12.72184 1 3 ack 40 ------- 0 4.0 0.0 6 17
- 12.72184 1 3 ack 40 ------- 0 4.0 0.0 6 17
r 12.911387 3 1 tcp 1040 ------- 0 0.0 4.0 8 13
+ 12.911387 1 2 tcp 1040 ------- 0 0.0 4.0 8 13
- 12.911387 1 2 tcp 1040 ------- 0 0.0 4.0 8 13
r 13.255173 1 3 ack 40 ------- 0 4.0 0.0 6 17
+ 13.255173 3 0 ack 40 ------- 0 4.0 0.0 6 17
- 13.255173 3 0 ack 40 ------- 0 4.0 0.0 6 17
r 13.26528 3 0 ack 40 ------- 0 4.0 0.0 6 17
+ 13.26528 0 3 tcp 1040 ------- 0 0.0 4.0 13 20
- 13.26528 0 3 tcp 1040 ------- 0 0.0 4.0 13 20
+ 13.26528 0 3 tcp 1040 ------- 0 0.0 4.0 14 21
- 13.268053 0 3 tcp 1040 ------- 0 0.0 4.0 14 21
- 13.278053 3 1 tcp 1040 ------- 0 0.0 4.0 10 16
r 13.278053 0 3 tcp 1040 ------- 0 0.0 4.0 13 20
+ 13.278053 3 1 tcp 1040 ------- 0 0.0 4.0 13 20
r 13.280827 0 3 tcp 1040 ------- 0 0.0 4.0 14 21
+ 13.280827 3 1 tcp 1040 ------- 0 0.0 4.0 14 21
r 13.411387 1 2 tcp 1040 ------- 0 0.0 4.0 7 12
+ 13.411387 2 4 tcp 1040 ------- 0 0.0 4.0 7 12
- 13.411387 2 4 tcp 1040 ------- 0 0.0 4.0 7 12
r 13.42416 2 4 tcp 1040 ------- 0 0.0 4.0 7 12
+ 13.42416 4 2 ack 40 ------- 0 4.0 0.0 7 22
- 13.42416 4 2 ack 40 ------- 0 4.0 0.0 7 22
r 13.434267 4 2 ack 40 ------- 0 4.0 0.0 7 22
+ 13.434267 2 1 ack 40 ------- 0 4.0 0.0 7 22
- 13.434267 2 1 ack 40 ------- 0 4.0 0.0 7 22
r 13.778053 3 1 tcp 1040 ------- 0 0.0 4.0 9 15
+ 13.778053 1 2 tcp 1040 ------- 0 0.0 4.0 9 15
- 13.778053 1 2 tcp 1040 ------- 0 0.0 4.0 9 15
r 13.9676 2 1 ack 40 ------- 0 4.0 0.0 7 22
+ 13.9676 1 3 ack 40 ------- 0 4.0 0.0 7 22
- 13.9676 1 3 ack 40 ------- 0 4.0 0.0 7 22
- 14.14472 3 1 tcp 1040 ------- 0 0.0 4.0 11 18
r 14.278053 1 2 tcp 1040 ------- 0 0.0 4.0 8 13
+ 14.278053 2 4 tcp 1040 ------- 0 0.0 4.0 8 13
- 14.278053 2 4 tcp 1040 ------- 0 0.0 4.0 8 13
r 14.290827 2 4 tcp 1040 ------- 0 0.0 4.0 8 13
+ 14.290827 4 2 ack 40 ------- 0 4.0 0.0 8 23
- 14.290827 4 2 ack 40 ------- 0 4.0 0.0 8 23
r 14.300933 4 2 ack 40 ------- 0 4.0 0.0 8 23
+ 14.300933 2 1 ack 40 ------- 0 4.0 0.0 8 23
- 14.300933 2 1 ack 40 ------- 0 4.0 0.0 8 23
r 14.500933 1 3 ack 40 ------- 0 4.0 0.0 7 22
+ 14.500933 3 0 ack 40 ------- 0 4.0 0.0 7 22
- 14.500933 3 0 ack 40 ------- 0 4.0 0.0 7 22
r 14.51104 3 0 ack 40 ------- 0 4.0 0.0 7 22
+ 14.51104 0 3 tcp 1040 ------- 0 0.0 4.0 15 24
- 14.51104 0 3 tcp 1040 ------- 0 0.0 4.0 15 24
+ 14.51104 0 3 tcp 1040 ------- 0 0.0 4.0 16 25
- 14.513813 0 3 tcp 1040 ------- 0 0.0 4.0 16 25
r 14.523813 0 3 tcp 1040 ------- 0 0.0 4.0 15 24
+ 14.523813 3 1 tcp 1040 ------- 0 0.0 4.0 15 24
r 14.526587 0 3 tcp 1040 ------- 0 0.0 4.0 16 25
+ 14.526587 3 1 tcp 1040 ------- 0 0.0 4.0 16 25
r 14.64472 3 1 tcp 1040 ------- 0 0.0 4.0 10 16
+ 14.64472 1 2 tcp 1040 ------- 0 0.0 4.0 10 16
- 14.64472 1 2 tcp 1040 ------- 0 0.0 4.0 10 16
r 14.834267 2 1 ack 40 ------- 0 4.0 0.0 8 23
+ 14.834267 1 3 ack 40 ------- 0 4.0 0.0 8 23
- 14.834267 1 3 ack 40 ------- 0 4.0 0.0 8 23
- 15.011387 3 1 tcp 1040 ------- 0 0.0 4.0 12 19
r 15.14472 1 2 tcp 1040 ------- 0 0.0 4.0 9 15
+ 15.14472 2 4 tcp 1040 ------- 0 0.0 4.0 9 15
- 15.14472 2 4 tcp 1040 ------- 0 0.0 4.0 9 15
r 15.157493 2 4 tcp 1040 ------- 0 0.0 4.0 9 15
+ 15.157493 4 2 ack 40 ------- 0 4.0 0.0 9 26
- 15.157493 4 2 ack 40 ------- 0 4.0 0.0 9 26
r 15.1676 4 2 ack 40 ------- 0 4.0 0.0 9 26
+ 15.1676 2 1 ack 40 ------- 0 4.0 0.0 9 26
- 15.1676 2 1 ack 40 ------- 0 4.0 0.0 9 26
r 15.3676 1 3 ack 40 ------- 0 4.0 0.0 8 23
+ 15.3676 3 0 ack 40 ------- 0 4.0 0.0 8 23
- 15.3676 3 0 ack 40 ------- 0 4.0 0.0 8 23
r 15.377707 3 0 ack 40 ------- 0 4.0 0.0 8 23
+ 15.377707 0 3 tcp 1040 ------- 0 0.0 4.0 17 27
- 15.377707 0 3 tcp 1040 ------- 0 0.0 4.0 17 27
+ 15.377707 0 3 tcp 1040 ------- 0 0.0 4.0 18 28
- 15.38048 0 3 tcp 1040 ------- 0 0.0 4.0 18 28
r 15.39048 0 3 tcp 1040 ------- 0 0.0 4.0 17 27
+ 15.39048 3 1 tcp 1040 ------- 0 0.0 4.0 17 27
r 15.393253 0 3 tcp 1040 ------- 0 0.0 4.0 18 28
+ 15.393253 3 1 tcp 1040 ------- 0 0.0 4.0 18 28
d 15.393253 3 1 tcp 1040 ------- 0 0.0 4.0 18 28
r 15.511387 3 1 tcp 1040 ------- 0 0.0 4.0 11 18
+ 15.511387 1 2 tcp 1040 ------- 0 0.0 4.0 11 18
- 15.511387 1 2 tcp 1040 ------- 0 0.0 4.0 11 18
r 15.700933 2 1 ack 40 ------- 0 4.0 0.0 9 26
+ 15.700933 1 3 ack 40 ------- 0 4.0 0.0 9 26
- 15.700933 1 3 ack 40 ------- 0 4.0 0.0 9 26
- 15.878053 3 1 tcp 1040 ------- 0 0.0 4.0 13 20
r 16.011387 1 2 tcp 1040 ------- 0 0.0 4.0 10 16
+ 16.011387 2 4 tcp 1040 ------- 0 0.0 4.0 10 16
- 16.011387 2 4 tcp 1040 ------- 0 0.0 4.0 10 16
r 16.02416 2 4 tcp 1040 ------- 0 0.0 4.0 10 16
+ 16.02416 4 2 ack 40 ------- 0 4.0 0.0 10 29
- 16.02416 4 2 ack 40 ------- 0 4.0 0.0 10 29
r 16.034267 4 2 ack 40 ------- 0 4.0 0.0 10 29
+ 16.034267 2 1 ack 40 ------- 0 4.0 0.0 10 29
- 16.034267 2 1 ack 40 ------- 0 4.0 0.0 10 29
r 16.234267 1 3 ack 40 ------- 0 4.0 0.0 9 26
+ 16.234267 3 0 ack 40 ------- 0 4.0 0.0 9 26
- 16.234267 3 0 ack 40 ------- 0 4.0 0.0 9 26
r 16.244373 3 0 ack 40 ------- 0 4.0 0.0 9 26
+ 16.244373 0 3 tcp 1040 ------- 0 0.0 4.0 19 30
- 16.244373 0 3 tcp 1040 ------- 0 0.0 4.0 19 30
+ 16.244373 0 3 tcp 1040 ------- 0 0.0 4.0 20 31
- 16.247147 0 3 tcp 1040 ------- 0 0.0 4.0 20 31
r 16.257147 0 3 tcp 1040 ------- 0 0.0 4.0 19 30
+ 16.257147 3 1 tcp 1040 ------- 0 0.0 4.0 19 30
r 16.25992 0 3 tcp 1040 ------- 0 0.0 4.0 20 31
+ 16.25992 3 1 tcp 1040 ------- 0 0.0 4.0 20 31
d 16.25992 3 1 tcp 1040 ------- 0 0.0 4.0 20 31
r 16.378053 3 1 tcp 1040 ------- 0 0.0 4.0 12 19
+ 16.378053 1 2 tcp 1040 ------- 0 0.0 4.0 12 19
- 16.378053 1 2 tcp 1040 ------- 0 0.0 4.0 12 19
r 16.5676 2 1 ack 40 ------- 0 4.0 0.0 10 29
+ 16.5676 1 3 ack 40 ------- 0 4.0 0.0 10 29
- 16.5676 1 3 ack 40 ------- 0 4.0 0.0 10 29
- 16.74472 3 1 tcp 1040 ------- 0 0.0 4.0 14 21
r 16.878053 1 2 tcp 1040 ------- 0 0.0 4.0 11 18
+ 16.878053 2 4 tcp 1040 ------- 0 0.0 4.0 11 18
- 16.878053 2 4 tcp 1040 ------- 0 0.0 4.0 11 18
r 16.890827 2 4 tcp 1040 ------- 0 0.0 4.0 11 18
+ 16.890827 4 2 ack 40 ------- 0 4.0 0.0 11 32
- 16.890827 4 2 ack 40 ------- 0 4.0 0.0 11 32
r 16.900933 4 2 ack 40 ------- 0 4.0 0.0 11 32
+ 16.900933 2 1 ack 40 ------- 0 4.0 0.0 11 32
- 16.900933 2 1 ack 40 ------- 0 4.0 0.0 11 32
r 17.100933 1 3 ack 40 ------- 0 4.0 0.0 10 29
+ 17.100933 3 0 ack 40 ------- 0 4.0 0.0 10 29
- 17.100933 3 0 ack 40 ------- 0 4.0 0.0 10 29
r 17.11104 3 0 ack 40 ------- 0 4.0 0.0 10 29
+ 17.11104 0 3 tcp 1040 ------- 0 0.0 4.0 21 33
- 17.11104 0 3 tcp 1040 ------- 0 0.0 4.0 21 33
+ 17.11104 0 3 tcp 1040 ------- 0 0.0 4.0 22 34
- 17.113813 0 3 tcp 1040 ------- 0 0.0 4.0 22 34
r 17.123813 0 3 tcp 1040 ------- 0 0.0 4.0 21 33
+ 17.123813 3 1 tcp 1040 ------- 0 0.0 4.0 21 33
r 17.126587 0 3 tcp 1040 ------- 0 0.0 4.0 22 34
+ 17.126587 3 1 tcp 1040 ------- 0 0.0 4.0 22 34
d 17.126587 3 1 tcp 1040 ------- 0 0.0 4.0 22 34
r 17.24472 3 1 tcp 1040 ------- 0 0.0 4.0 13 20
+ 17.24472 1 2 tcp 1040 ------- 0 0.0 4.0 13 20
- 17.24472 1 2 tcp 1040 ------- 0 0.0 4.0 13 20
r 17.434267 2 1 ack 40 ------- 0 4.0 0.0 11 32
+ 17.434267 1 3 ack 40 ------- 0 4.0 0.0 11 32
- 17.434267 1 3 ack 40 ------- 0 4.0 0.0 11 32
- 17.611387 3 1 tcp 1040 ------- 0 0.0 4.0 15 24
r 17.74472 1 2 tcp 1040 ------- 0 0.0 4.0 12 19
+ 17.74472 2 4 tcp 1040 ------- 0 0.0 4.0 12 19
- 17.74472 2 4 tcp 1040 ------- 0 0.0 4.0 12 19
r 17.757493 2 4 tcp 1040 ------- 0 0.0 4.0 12 19
+ 17.757493 4 2 ack 40 ------- 0 4.0 0.0 12 35
- 17.757493 4 2 ack 40 ------- 0 4.0 0.0 12 35
r 17.7676 4 2 ack 40 ------- 0 4.0 0.0 12 35
+ 17.7676 2 1 ack 40 ------- 0 4.0 0.0 12 35
- 17.7676 2 1 ack 40 ------- 0 4.0 0.0 12 35
r 17.9676 1 3 ack 40 ------- 0 4.0 0.0 11 32
+ 17.9676 3 0 ack 40 ------- 0 4.0 0.0 11 32
- 17.9676 3 0 ack 40 ------- 0 4.0 0.0 11 32
r 17.977707 3 0 ack 40 ------- 0 4.0 0.0 11 32
+ 17.977707 0 3 tcp 1040 ------- 0 0.0 4.0 23 36
- 17.977707 0 3 tcp 1040 ------- 0 0.0 4.0 23 36
+ 17.977707 0 3 tcp 1040 ------- 0 0.0 4.0 24 37
- 17.98048 0 3 tcp 1040 ------- 0 0.0 4.0 24 37
r 17.99048 0 3 tcp 1040 ------- 0 0.0 4.0 23 36
+ 17.99048 3 1 tcp 1040 ------- 0 0.0 4.0 23 36
r 17.993253 0 3 tcp 1040 ------- 0 0.0 4.0 24 37
+ 17.993253 3 1 tcp 1040 ------- 0 0.0 4.0 24 37
d 17.993253 3 1 tcp 1040 ------- 0 0.0 4.0 24 37
r 18.111387 3 1 tcp 1040 ------- 0 0.0 4.0 14 21
+ 18.111387 1 2 tcp 1040 ------- 0 0.0 4.0 14 21
- 18.111387 1 2 tcp 1040 ------- 0 0.0 4.0 14 21
r 18.300933 2 1 ack 40 ------- 0 4.0 0.0 12 35
+ 18.300933 1 3 ack 40 ------- 0 4.0 0.0 12 35
- 18.300933 1 3 ack 40 ------- 0 4.0 0.0 12 35
- 18.478053 3 1 tcp 1040 ------- 0 0.0 4.0 16 25
r 18.611387 1 2 tcp 1040 ------- 0 0.0 4.0 13 20
+ 18.611387 2 4 tcp 1040 ------- 0 0.0 4.0 13 20
- 18.611387 2 4 tcp 1040 ------- 0 0.0 4.0 13 20
r 18.62416 2 4 tcp 1040 ------- 0 0.0 4.0 13 20
+ 18.62416 4 2 ack 40 ------- 0 4.0 0.0 13 38
- 18.62416 4 2 ack 40 ------- 0 4.0 0.0 13 38
r 18.634267 4 2 ack 40 ------- 0 4.0 0.0 13 38
+ 18.634267 2 1 ack 40 ------- 0 4.0 0.0 13 38
- 18.634267 2 1 ack 40 ------- 0 4.0 0.0 13 38
r 18.834267 1 3 ack 40 ------- 0 4.0 0.0 12 35
+ 18.834267 3 0 ack 40 ------- 0 4.0 0.0 12 35
- 18.834267 3 0 ack 40 ------- 0 4.0 0.0 12 35
r 18.844373 3 0 ack 40 ------- 0 4.0 0.0 12 35
+ 18.844373 0 3 tcp 1040 ------- 0 0.0 4.0 25 39
- 18.844373 0 3 tcp 1040 ------- 0 0.0 4.0 25 39
+ 18.844373 0 3 tcp 1040 ------- 0 0.0 4.0 26 40
- 18.847147 0 3 tcp 1040 ------- 0 0.0 4.0 26 40
r 18.857147 0 3 tcp 1040 ------- 0 0.0 4.0 25 39
+ 18.857147 3 1 tcp 1040 ------- 0 0.0 4.0 25 39
r 18.85992 0 3 tcp 1040 ------- 0 0.0 4.0 26 40
+ 18.85992 3 1 tcp 1040 ------- 0 0.0 4.0 26 40
d 18.85992 3 1 tcp 1040 ------- 0 0.0 4.0 26 40
r 18.978053 3 1 tcp 1040 ------- 0 0.0 4.0 15 24
+ 18.978053 1 2 tcp 1040 ------- 0 0.0 4.0 15 24
- 18.978053 1 2 tcp 1040 ------- 0 0.0 4.0 15 24
r 19.1676 2 1 ack 40 ------- 0 4.0 0.0 13 38
+ 19.1676 1 3 ack 40 ------- 0 4.0 0.0 13 38
- 19.1676 1 3 ack 40 ------- 0 4.0 0.0 13 38
- 19.34472 3 1 tcp 1040 ------- 0 0.0 4.0 17 27
r 19.478053 1 2 tcp 1040 ------- 0 0.0 4.0 14 21
+ 19.478053 2 4 tcp 1040 ------- 0 0.0 4.0 14 21
- 19.478053 2 4 tcp 1040 ------- 0 0.0 4.0 14 21
r 19.490827 2 4 tcp 1040 ------- 0 0.0 4.0 14 21
+ 19.490827 4 2 ack 40 ------- 0 4.0 0.0 14 41
- 19.490827 4 2 ack 40 ------- 0 4.0 0.0 14 41
r 19.500933 4 2 ack 40 ------- 0 4.0 0.0 14 41
+ 19.500933 2 1 ack 40 ------- 0 4.0 0.0 14 41
- 19.500933 2 1 ack 40 ------- 0 4.0 0.0 14 41
r 19.700933 1 3 ack 40 ------- 0 4.0 0.0 13 38
+ 19.700933 3 0 ack 40 ------- 0 4.0 0.0 13 38
- 19.700933 3 0 ack 40 ------- 0 4.0 0.0 13 38
r 19.71104 3 0 ack 40 ------- 0 4.0 0.0 13 38
+ 19.71104 0 3 tcp 1040 ------- 0 0.0 4.0 27 42
- 19.71104 0 3 tcp 1040 ------- 0 0.0 4.0 27 42
+ 19.71104 0 3 tcp 1040 ------- 0 0.0 4.0 28 43
- 19.713813 0 3 tcp 1040 ------- 0 0.0 4.0 28 43
r 19.723813 0 3 tcp 1040 ------- 0 0.0 4.0 27 42
+ 19.723813 3 1 tcp 1040 ------- 0 0.0 4.0 27 42
r 19.726587 0 3 tcp 1040 ------- 0 0.0 4.0 28 43
+ 19.726587 3 1 tcp 1040 ------- 0 0.0 4.0 28 43
d 19.726587 3 1 tcp 1040 ------- 0 0.0 4.0 28 43
r 19.84472 3 1 tcp 1040 ------- 0 0.0 4.0 16 25
+ 19.84472 1 2 tcp 1040 ------- 0 0.0 4.0 16 25
- 19.84472 1 2 tcp 1040 ------- 0 0.0 4.0 16 25
r 20.034267 2 1 ack 40 ------- 0 4.0 0.0 14 41
+ 20.034267 1 3 ack 40 ------- 0 4.0 0.0 14 41
- 20.034267 1 3 ack 40 ------- 0 4.0 0.0 14 41
- 20.211387 3 1 tcp 1040 ------- 0 0.0 4.0 19 30
r 20.34472 1 2 tcp 1040 ------- 0 0.0 4.0 15 24
+ 20.34472 2 4 tcp 1040 ------- 0 0.0 4.0 15 24
- 20.34472 2 4 tcp 1040 ------- 0 0.0 4.0 15 24
r 20.357493 2 4 tcp 1040 ------- 0 0.0 4.0 15 24
+ 20.357493 4 2 ack 40 ------- 0 4.0 0.0 15 44
- 20.357493 4 2 ack 40 ------- 0 4.0 0.0 15 44
r 20.3676 4 2 ack 40 ------- 0 4.0 0.0 15 44
+ 20.3676 2 1 ack 40 ------- 0 4.0 0.0 15 44
- 20.3676 2 1 ack 40 ------- 0 4.0 0.0 15 44
r 20.5676 1 3 ack 40 ------- 0 4.0 0.0 14 41
+ 20.5676 3 0 ack 40 ------- 0 4.0 0.0 14 41
- 20.5676 3 0 ack 40 ------- 0 4.0 0.0 14 41
r 20.577707 3 0 ack 40 ------- 0 4.0 0.0 14 41
+ 20.577707 0 3 tcp 1040 ------- 0 0.0 4.0 29 45
- 20.577707 0 3 tcp 1040 ------- 0 0.0 4.0 29 45
+ 20.577707 0 3 tcp 1040 ------- 0 0.0 4.0 30 46
- 20.58048 0 3 tcp 1040 ------- 0 0.0 4.0 30 46
r 20.59048 0 3 tcp 1040 ------- 0 0.0 4.0 29 45
+ 20.59048 3 1 tcp 1040 ------- 0 0.0 4.0 29 45
r 20.593253 0 3 tcp 1040 ------- 0 0.0 4.0 30 46
+ 20.593253 3 1 tcp 1040 ------- 0 0.0 4.0 30 46
d 20.593253 3 1 tcp 1040 ------- 0 0.0 4.0 30 46
r 20.711387 3 1 tcp 1040 ------- 0 0.0 4.0 17 27
+ 20.711387 1 2 tcp 1040 ------- 0 0.0 4.0 17 27
- 20.711387 1 2 tcp 1040 ------- 0 0.0 4.0 17 27
r 20.900933 2 1 ack 40 ------- 0 4.0 0.0 15 44
+ 20.900933 1 3 ack 40 ------- 0 4.0 0.0 15 44
- 20.900933 1 3 ack 40 ------- 0 4.0 0.0 15 44
- 21.078053 3 1 tcp 1040 ------- 0 0.0 4.0 21 33
r 21.211387 1 2 tcp 1040 ------- 0 0.0 4.0 16 25
+ 21.211387 2 4 tcp 1040 ------- 0 0.0 4.0 16 25
- 21.211387 2 4 tcp 1040 ------- 0 0.0 4.0 16 25
r 21.22416 2 4 tcp 1040 ------- 0 0.0 4.0 16 25
+ 21.22416 4 2 ack 40 ------- 0 4.0 0.0 16 47
- 21.22416 4 2 ack 40 ------- 0 4.0 0.0 16 47
r 21.234267 4 2 ack 40 ------- 0 4.0 0.0 16 47
+ 21.234267 2 1 ack 40 ------- 0 4.0 0.0 16 47
- 21.234267 2 1 ack 40 ------- 0 4.0 0.0 16 47
r 21.434267 1 3 ack 40 ------- 0 4.0 0.0 15 44
+ 21.434267 3 0 ack 40 ------- 0 4.0 0.0 15 44
- 21.434267 3 0 ack 40 ------- 0 4.0 0.0 15 44
r 21.444373 3 0 ack 40 ------- 0 4.0 0.0 15 44
+ 21.444373 0 3 tcp 1040 ------- 0 0.0 4.0 31 48
- 21.444373 0 3 tcp 1040 ------- 0 0.0 4.0 31 48
+ 21.444373 0 3 tcp 1040 ------- 0 0.0 4.0 32 49
- 21.447147 0 3 tcp 1040 ------- 0 0.0 4.0 32 49
r 21.457147 0 3 tcp 1040 ------- 0 0.0 4.0 31 48
+ 21.457147 3 1 tcp 1040 ------- 0 0.0 4.0 31 48
r 21.45992 0 3 tcp 1040 ------- 0 0.0 4.0 32 49
+ 21.45992 3 1 tcp 1040 ------- 0 0.0 4.0 32 49
d 21.45992 3 1 tcp 1040 ------- 0 0.0 4.0 32 49
r 21.578053 3 1 tcp 1040 ------- 0 0.0 4.0 19 30
+ 21.578053 1 2 tcp 1040 ------- 0 0.0 4.0 19 30
- 21.578053 1 2 tcp 1040 ------- 0 0.0 4.0 19 30
r 21.7676 2 1 ack 40 ------- 0 4.0 0.0 16 47
+ 21.7676 1 3 ack 40 ------- 0 4.0 0.0 16 47
- 21.7676 1 3 ack 40 ------- 0 4.0 0.0 16 47
- 21.94472 3 1 tcp 1040 ------- 0 0.0 4.0 23 36
r 22.078053 1 2 tcp 1040 ------- 0 0.0 4.0 17 27
+ 22.078053 2 4 tcp 1040 ------- 0 0.0 4.0 17 27
- 22.078053 2 4 tcp 1040 ------- 0 0.0 4.0 17 27
r 22.090827 2 4 tcp 1040 ------- 0 0.0 4.0 17 27
+ 22.090827 4 2 ack 40 ------- 0 4.0 0.0 17 50
- 22.090827 4 2 ack 40 ------- 0 4.0 0.0 17 50
r 22.100933 4 2 ack 40 ------- 0 4.0 0.0 17 50
+ 22.100933 2 1 ack 40 ------- 0 4.0 0.0 17 50
- 22.100933 2 1 ack 40 ------- 0 4.0 0.0 17 50
r 22.300933 1 3 ack 40 ------- 0 4.0 0.0 16 47
+ 22.300933 3 0 ack 40 ------- 0 4.0 0.0 16 47
- 22.300933 3 0 ack 40 ------- 0 4.0 0.0 16 47
r 22.31104 3 0 ack 40 ------- 0 4.0 0.0 16 47
+ 22.31104 0 3 tcp 1040 ------- 0 0.0 4.0 33 51
- 22.31104 0 3 tcp 1040 ------- 0 0.0 4.0 33 51
+ 22.31104 0 3 tcp 1040 ------- 0 0.0 4.0 34 52
- 22.313813 0 3 tcp 1040 ------- 0 0.0 4.0 34 52
r 22.323813 0 3 tcp 1040 ------- 0 0.0 4.0 33 51
+ 22.323813 3 1 tcp 1040 ------- 0 0.0 4.0 33 51
r 22.326587 0 3 tcp 1040 ------- 0 0.0 4.0 34 52
+ 22.326587 3 1 tcp 1040 ------- 0 0.0 4.0 34 52
d 22.326587 3 1 tcp 1040 ------- 0 0.0 4.0 34 52
r 22.44472 3 1 tcp 1040 ------- 0 0.0 4.0 21 33
+ 22.44472 1 2 tcp 1040 ------- 0 0.0 4.0 21 33
- 22.44472 1 2 tcp 1040 ------- 0 0.0 4.0 21 33
r 22.634267 2 1 ack 40 ------- 0 4.0 0.0 17 50
+ 22.634267 1 3 ack 40 ------- 0 4.0 0.0 17 50
- 22.634267 1 3 ack 40 ------- 0 4.0 0.0 17 50
- 22.811387 3 1 tcp 1040 ------- 0 0.0 4.0 25 39
r 22.94472 1 2 tcp 1040 ------- 0 0.0 4.0 19 30
+ 22.94472 2 4 tcp 1040 ------- 0 0.0 4.0 19 30
- 22.94472 2 4 tcp 1040 ------- 0 0.0 4.0 19 30
r 22.957493 2 4 tcp 1040 ------- 0 0.0 4.0 19 30
+ 22.957493 4 2 ack 48 ------- 0 4.0 0.0 17 53
- 22.957493 4 2 ack 48 ------- 0 4.0 0.0 17 53
r 22.967621 4 2 ack 48 ------- 0 4.0 0.0 17 53
+ 22.967621 2 1 ack 48 ------- 0 4.0 0.0 17 53
- 22.967621 2 1 ack 48 ------- 0 4.0 0.0 17 53
r 23.1676 1 3 ack 40 ------- 0 4.0 0.0 17 50
+ 23.1676 3 0 ack 40 ------- 0 4.0 0.0 17 50
- 23.1676 3 0 ack 40 ------- 0 4.0 0.0 17 50
r 23.177707 3 0 ack 40 ------- 0 4.0 0.0 17 50
+ 23.177707 0 3 tcp 1040 ------- 0 0.0 4.0 35 54
- 23.177707 0 3 tcp 1040 ------- 0 0.0 4.0 35 54
+ 23.177707 0 3 tcp 1040 ------- 0 0.0 4.0 36 55
- 23.18048 0 3 tcp 1040 ------- 0 0.0 4.0 36 55
r 23.19048 0 3 tcp 1040 ------- 0 0.0 4.0 35 54
+ 23.19048 3 1 tcp 1040 ------- 0 0.0 4.0 35 54
r 23.193253 0 3 tcp 1040 ------- 0 0.0 4.0 36 55
+ 23.193253 3 1 tcp 1040 ------- 0 0.0 4.0 36 55
d 23.193253 3 1 tcp 1040 ------- 0 0.0 4.0 36 55
r 23.311387 3 1 tcp 1040 ------- 0 0.0 4.0 23 36
+ 23.311387 1 2 tcp 1040 ------- 0 0.0 4.0 23 36
- 23.311387 1 2 tcp 1040 ------- 0 0.0 4.0 23 36
r 23.507621 2 1 ack 48 ------- 0 4.0 0.0 17 53
+ 23.507621 1 3 ack 48 ------- 0 4.0 0.0 17 53
- 23.507621 1 3 ack 48 ------- 0 4.0 0.0 17 53
- 23.678053 3 1 tcp 1040 ------- 0 0.0 4.0 27 42
r 23.811387 1 2 tcp 1040 ------- 0 0.0 4.0 21 33
+ 23.811387 2 4 tcp 1040 ------- 0 0.0 4.0 21 33
- 23.811387 2 4 tcp 1040 ------- 0 0.0 4.0 21 33
r 23.82416 2 4 tcp 1040 ------- 0 0.0 4.0 21 33
+ 23.82416 4 2 ack 56 ------- 0 4.0 0.0 17 56
- 23.82416 4 2 ack 56 ------- 0 4.0 0.0 17 56
r 23.834309 4 2 ack 56 ------- 0 4.0 0.0 17 56
+ 23.834309 2 1 ack 56 ------- 0 4.0 0.0 17 56
- 23.834309 2 1 ack 56 ------- 0 4.0 0.0 17 56
r 24.047621 1 3 ack 48 ------- 0 4.0 0.0 17 53
+ 24.047621 3 0 ack 48 ------- 0 4.0 0.0 17 53
- 24.047621 3 0 ack 48 ------- 0 4.0 0.0 17 53
r 24.057749 3 0 ack 48 ------- 0 4.0 0.0 17 53
+ 24.057749 0 3 tcp 1040 ------- 0 0.0 4.0 37 57
- 24.057749 0 3 tcp 1040 ------- 0 0.0 4.0 37 57
r 24.070523 0 3 tcp 1040 ------- 0 0.0 4.0 37 57
+ 24.070523 3 1 tcp 1040 ------- 0 0.0 4.0 37 57
r 24.178053 3 1 tcp 1040 ------- 0 0.0 4.0 25 39
+ 24.178053 1 2 tcp 1040 ------- 0 0.0 4.0 25 39
- 24.178053 1 2 tcp 1040 ------- 0 0.0 4.0 25 39
r 24.380976 2 1 ack 56 ------- 0 4.0 0.0 17 56
+ 24.380976 1 3 ack 56 ------- 0 4.0 0.0 17 56
- 24.380976 1 3 ack 56 ------- 0 4.0 0.0 17 56
- 24.54472 3 1 tcp 1040 ------- 0 0.0 4.0 29 45
r 24.678053 1 2 tcp 1040 ------- 0 0.0 4.0 23 36
+ 24.678053 2 4 tcp 1040 ------- 0 0.0 4.0 23 36
- 24.678053 2 4 tcp 1040 ------- 0 0.0 4.0 23 36
r 24.690827 2 4 tcp 1040 ------- 0 0.0 4.0 23 36
+ 24.690827 4 2 ack 64 ------- 0 4.0 0.0 17 58
- 24.690827 4 2 ack 64 ------- 0 4.0 0.0 17 58
r 24.700997 4 2 ack 64 ------- 0 4.0 0.0 17 58
+ 24.700997 2 1 ack 64 ------- 0 4.0 0.0 17 58
- 24.700997 2 1 ack 64 ------- 0 4.0 0.0 17 58
r 24.927643 1 3 ack 56 ------- 0 4.0 0.0 17 56
+ 24.927643 3 0 ack 56 ------- 0 4.0 0.0 17 56
- 24.927643 3 0 ack 56 ------- 0 4.0 0.0 17 56
r 24.937792 3 0 ack 56 ------- 0 4.0 0.0 17 56
+ 24.937792 0 3 tcp 1040 ------- 0 0.0 4.0 38 59
- 24.937792 0 3 tcp 1040 ------- 0 0.0 4.0 38 59
r 24.950565 0 3 tcp 1040 ------- 0 0.0 4.0 38 59
+ 24.950565 3 1 tcp 1040 ------- 0 0.0 4.0 38 59
r 25.04472 3 1 tcp 1040 ------- 0 0.0 4.0 27 42
+ 25.04472 1 2 tcp 1040 ------- 0 0.0 4.0 27 42
- 25.04472 1 2 tcp 1040 ------- 0 0.0 4.0 27 42
r 25.254331 2 1 ack 64 ------- 0 4.0 0.0 17 58
+ 25.254331 1 3 ack 64 ------- 0 4.0 0.0 17 58
- 25.254331 1 3 ack 64 ------- 0 4.0 0.0 17 58
- 25.411387 3 1 tcp 1040 ------- 0 0.0 4.0 31 48
r 25.54472 1 2 tcp 1040 ------- 0 0.0 4.0 25 39
+ 25.54472 2 4 tcp 1040 ------- 0 0.0 4.0 25 39
- 25.54472 2 4 tcp 1040 ------- 0 0.0 4.0 25 39
r 25.557493 2 4 tcp 1040 ------- 0 0.0 4.0 25 39
+ 25.557493 4 2 ack 64 ------- 0 4.0 0.0 17 60
- 25.557493 4 2 ack 64 ------- 0 4.0 0.0 17 60
r 25.567664 4 2 ack 64 ------- 0 4.0 0.0 17 60
+ 25.567664 2 1 ack 64 ------- 0 4.0 0.0 17 60
- 25.567664 2 1 ack 64 ------- 0 4.0 0.0 17 60
r 25.807664 1 3 ack 64 ------- 0 4.0 0.0 17 58
+ 25.807664 3 0 ack 64 ------- 0 4.0 0.0 17 58
- 25.807664 3 0 ack 64 ------- 0 4.0 0.0 17 58
r 25.817835 3 0 ack 64 ------- 0 4.0 0.0 17 58
+ 25.817835 0 3 tcp 1040 ---A--- 0 0.0 4.0 18 61
- 25.817835 0 3 tcp 1040 ---A--- 0 0.0 4.0 18 61
r 25.830608 0 3 tcp 1040 ---A--- 0 0.0 4.0 18 61
+ 25.830608 3 1 tcp 1040 ---A--- 0 0.0 4.0 18 61
r 25.911387 3 1 tcp 1040 ------- 0 0.0 4.0 29 45
+ 25.911387 1 2 tcp 1040 ------- 0 0.0 4.0 29 45
- 25.911387 1 2 tcp 1040 ------- 0 0.0 4.0 29 45
r 26.120997 2 1 ack 64 ------- 0 4.0 0.0 17 60
+ 26.120997 1 3 ack 64 ------- 0 4.0 0.0 17 60
- 26.120997 1 3 ack 64 ------- 0 4.0 0.0 17 60
- 26.278053 3 1 tcp 1040 ------- 0 0.0 4.0 33 51
r 26.411387 1 2 tcp 1040 ------- 0 0.0 4.0 27 42
+ 26.411387 2 4 tcp 1040 ------- 0 0.0 4.0 27 42
- 26.411387 2 4 tcp 1040 ------- 0 0.0 4.0 27 42
r 26.42416 2 4 tcp 1040 ------- 0 0.0 4.0 27 42
+ 26.42416 4 2 ack 64 ------- 0 4.0 0.0 17 62
- 26.42416 4 2 ack 64 ------- 0 4.0 0.0 17 62
r 26.434331 4 2 ack 64 ------- 0 4.0 0.0 17 62
+ 26.434331 2 1 ack 64 ------- 0 4.0 0.0 17 62
- 26.434331 2 1 ack 64 ------- 0 4.0 0.0 17 62
r 26.674331 1 3 ack 64 ------- 0 4.0 0.0 17 60
+ 26.674331 3 0 ack 64 ------- 0 4.0 0.0 17 60
- 26.674331 3 0 ack 64 ------- 0 4.0 0.0 17 60
r 26.684501 3 0 ack 64 ------- 0 4.0 0.0 17 60
r 26.778053 3 1 tcp 1040 ------- 0 0.0 4.0 31 48
+ 26.778053 1 2 tcp 1040 ------- 0 0.0 4.0 31 48
- 26.778053 1 2 tcp 1040 ------- 0 0.0 4.0 31 48
r 26.987664 2 1 ack 64 ------- 0 4.0 0.0 17 62
+ 26.987664 1 3 ack 64 ------- 0 4.0 0.0 17 62
- 26.987664 1 3 ack 64 ------- 0 4.0 0.0 17 62
- 27.14472 3 1 tcp 1040 ------- 0 0.0 4.0 35 54
r 27.278053 1 2 tcp 1040 ------- 0 0.0 4.0 29 45
+ 27.278053 2 4 tcp 1040 ------- 0 0.0 4.0 29 45