V -t * -v 1.0a5 -a 0
A -t * -n 1 -p 0 -o 0x7fffffff -c 30 -a 1
A -t * -h 1 -m 1073741823 -s 0
n -t * -a 0 -s 0 -S UP -v circle -c black -i black
n -t * -a 1 -s 1 -S UP -v circle -c black -i black
n -t * -a 2 -s 2 -S UP -v circle -c black -i black
l -t * -s 0 -d 1 -S UP -r 10000000 -D 0.01 -c black -o right-down
l -t * -s 1 -d 2 -S UP -r 1000000 -D 0.01 -c black -o right-up
+ -t 1 -s 0 -d 1 -p tcp -e 40 -c 0 -i 0 -a 0 -x {0.0 2.0 0 ------- null}
- -t 1 -s 0 -d 1 -p tcp -e 40 -c 0 -i 0 -a 0 -x {0.0 2.0 0 ------- null}
h -t 1 -s 0 -d 1 -p tcp -e 40 -c 0 -i 0 -a 0 -x {0.0 2.0 -1 ------- null}
r -t 1.010032 -s 0 -d 1 -p tcp -e 40 -c 0 -i 0 -a 0 -x {0.0 2.0 0 ------- null}
+ -t 1.010032 -s 1 -d 2 -p tcp -e 40 -c 0 -i 0 -a 0 -x {0.0 2.0 0 ------- null}
- -t 1.010032 -s 1 -d 2 -p tcp -e 40 -c 0 -i 0 -a 0 -x {0.0 2.0 0 ------- null}
h -t 1.010032 -s 1 -d 2 -p tcp -e 40 -c 0 -i 0 -a 0 -x {0.0 2.0 -1 ------- null}
r -t 1.020352 -s 1 -d 2 -p tcp -e 40 -c 0 -i 0 -a 0 -x {0.0 2.0 0 ------- null}
+ -t 1.020352 -s 2 -d 1 -p ack -e 40 -c 0 -i 1 -a 0 -x {2.0 0.0 0 ------- null}
- -t 1.020352 -s 2 -d 1 -p ack -e 40 -c 0 -i 1 -a 0 -x {2.0 0.0 0 ------- null}
h -t 1.020352 -s 2 -d 1 -p ack -e 40 -c 0 -i 1 -a 0 -x {2.0 0.0 -1 ------- null}
r -t 1.030672 -s 2 -d 1 -p ack -e 40 -c 0 -i 1 -a 0 -x {2.0 0.0 0 ------- null}
+ -t 1.030672 -s 1 -d 0 -p ack -e 40 -c 0 -i 1 -a 0 -x {2.0 0.0 0 ------- null}
- -t 1.030672 -s 1 -d 0 -p ack -e 40 -c 0 -i 1 -a 0 -x {2.0 0.0 0 ------- null}
h -t 1.030672 -s 1 -d 0 -p ack -e 40 -c 0 -i 1 -a 0 -x {2.0 0.0 -1 ------- null}
r -t 1.040704 -s 1 -d 0 -p ack -e 40 -c 0 -i 1 -a 0 -x {2.0 0.0 0 ------- null}
+ -t 1.040704 -s 0 -d 1 -p tcp -e 1540 -c 0 -i 2 -a 0 -x {0.0 2.0 1 ------- null}
- -t 1.040704 -s 0 -d 1 -p tcp -e 1540 -c 0 -i 2 -a 0 -x {0.0 2.0 1 ------- null}
h -t 1.040704 -s 0 -d 1 -p tcp -e 1540 -c 0 -i 2 -a 0 -x {0.0 2.0 -1 ------- null}
+ -t 1.040704 -s 0 -d 1 -p tcp -e 1540 -c 0 -i 3 -a 0 -x {0.0 2.0 2 ------- null}
- -t 1.041936 -s 0 -d 1 -p tcp -e 1540 -c 0 -i 3 -a 0 -x {0.0 2.0 2 ------- null}
h -t 1.041936 -s 0 -d 1 -p tcp -e 1540 -c 0 -i 3 -a 0 -x {0.0 2.0 -1 ------- null}
r -t 1.051936 -s 0 -d 1 -p tcp -e 1540 -c 0 -i 2 -a 0 -x {0.0 2.0 1 ------- null}
+ -t 1.051936 -s 1 -d 2 -p tcp -e 1540 -c 0 -i 2 -a 0 -x {0.0 2.0 1 ------- null}
- -t 1.051936 -s 1 -d 2 -p tcp -e 1540 -c 0 -i 2 -a 0 -x {0.0 2.0 1 ------- null}
h -t 1.051936 -s 1 -d 2 -p tcp -e 1540 -c 0 -i 2 -a 0 -x {0.0 2.0 -1 ------- null}
r -t 1.053168 -s 0 -d 1 -p tcp -e 1540 -c 0 -i 3 -a 0 -x {0.0 2.0 2 ------- null}
+ -t 1.053168 -s 1 -d 2 -p tcp -e 1540 -c 0 -i 3 -a 0 -x {0.0 2.0 2 ------- null}
- -t 1.064256 -s 1 -d 2 -p tcp -e 1540 -c 0 -i 3 -a 0 -x {0.0 2.0 2 ------- null}
h -t 1.064256 -s 1 -d 2 -p tcp -e 1540 -c 0 -i 3 -a 0 -x {0.0 2.0 -1 ------- null}
r -t 1.074256 -s 1 -d 2 -p tcp -e 1540 -c 0 -i 2 -a 0 -x {0.0 2.0 1 ------- null}
+ -t 1.074256 -s 2 -d 1 -p ack -e 40 -c 0 -i 4 -a 0 -x {2.0 0.0 1 ------- null}
- -t 1.074256 -s 2 -d 1 -p ack -e 40 -c 0 -i 4 -a 0 -x {2.0 0.0 1 ------- null}
h -t 1.074256 -s 2 -d 1 -p ack -e 40 -c 0 -i 4 -a 0 -x {2.0 0.0 -1 ------- null}
r -t 1.084576 -s 2 -d 1 -p ack -e 40 -c 0 -i 4 -a 0 -x {2.0 0.0 1 ------- null}
+ -t 1.084576 -s 1 -d 0 -p ack -e 40 -c 0 -i 4 -a 0 -x {2.0 0.0 1 ------- null}
- -t 1.084576 -s 1 -d 0 -p ack -e 40 -c 0 -i 4 -a 0 -x {2.0 0.0 1 ------- null}
h -t 1.084576 -s 1 -d 0 -p ack -e 40 -c 0 -i 4 -a 0 -x {2.0 0.0 -1 ------- null}
r -t 1.086576 -s 1 -d 2 -p tcp -e 1540 -c 0 -i 3 -a 0 -x {0.0 2.0 2 ------- null}
+ -t 1.086576 -s 2 -d 1 -p ack -e 40 -c 0 -i 5 -a 0 -x {2.0 0.0 2 ------- null}
- -t 1.086576 -s 2 -d 1 -p ack -e 40 -c 0 -i 5 -a 0 -x {2.0 0.0 2 ------- null}
h -t 1.086576 -s 2 -d 1 -p ack -e 40 -c 0 -i 5 -a 0 -x {2.0 0.0 -1 ------- null}
r -t 1.094608 -s 1 -d 0 -p ack -e 40 -c 0 -i 4 -a 0 -x {2.0 0.0 1 ------- null}
+ -t 1.094608 -s 0 -d 1 -p tcp -e 1540 -c 0 -i 6 -a 0 -x {0.0 2.0 3 ------- null}
- -t 1.094608 -s 0 -d 1 -p tcp -e 1540 -c 0 -i 6 -a 0 -x {0.0 2.0 3 ------- null}
h -t 1.094608 -s 0 -d 1 -p tcp -e 1540 -c 0 -i 6 -a 0 -x {0.0 2.0 -1 ------- null}
+ -t 1.094608 -s 0 -d 1 -p tcp -e 1540 -c 0 -i 7 -a 0 -x {0.0 2.0 4 ------- null}
- -t 1.09584 -s 0 -d 1 -p tcp -e 1540 -c 0 -i 7 -a 0 -x {0.0 2.0 4 ------- null}
h -t 1.09584 -s 0 -d 1 -p tcp -e 1540 -c 0 -i 7 -a 0 -x {0.0 2.0 -1 ------- null}
r -t 1.096896 -s 2 -d 1 -p ack -e 40 -c 0 -i 5 -a 0 -x {2.0 0.0 2 ------- null}
+ -t 1.096896 -s 1 -d 0 -p ack -e 40 -c 0 -i 5 -a 0 -x {2.0 0.0 2 ------- null}
- -t 1.096896 -s 1 -d 0 -p ack -e 40 -c 0 -i 5 -a 0 -x {2.0 0.0 2 ------- null}
h -t 1.096896 -s 1 -d 0 -p ack -e 40 -c 0 -i 5 -a 0 -x {2.0 0.0 -1 ------- null}
r -t 1.10584 -s 0 -d 1 -p tcp -e 1540 -c 0 -i 6 -a 0 -x {0.0 2.0 3 ------- null}
+ -t 1.10584 -s 1 -d 2 -p tcp -e 1540 -c 0 -i 6 -a 0 -x {0.0 2.0 3 ------- null}
- -t 1.10584 -s 1 -d 2 -p tcp -e 1540 -c 0 -i 6 -a 0 -x {0.0 2.0 3 ------- null}
h -t 1.10584 -s 1 -d 2 -p tcp -e 1540 -c 0 -i 6 -a 0 -x {0.0 2.0 -1 ------- null}
r -t 1.106928 -s 1 -d 0 -p ack -e 40 -c 0 -i 5 -a 0 -x {2.0 0.0 2 ------- null}
+ -t 1.106928 -s 0 -d 1 -p tcp -e 1540 -c 0 -i 8 -a 0 -x {0.0 2.0 5 ------- null}
- -t 1.106928 -s 0 -d 1 -p tcp -e 1540 -c 0 -i 8 -a 0 -x {0.0 2.0 5 ------- null}
h -t 1.106928 -s 0 -d 1 -p tcp -e 1540 -c 0 -i 8 -a 0 -x {0.0 2.0 -1 ------- null}
+ -t 1.106928 -s 0 -d 1 -p tcp -e 1540 -c 0 -i 9 -a 0 -x {0.0 2.0 6 ------- null}
r -t 1.107072 -s 0 -d 1 -p tcp -e 1540 -c 0 -i 7 -a 0 -x {0.0 2.0 4 ------- null}
+ -t 1.107072 -s 1 -d 2 -p tcp -e 1540 -c 0 -i 7 -a 0 -x {0.0 2.0 4 ------- null}
- -t 1.10816 -s 0 -d 1 -p tcp -e 1540 -c 0 -i 9 -a 0 -x {0.0 2.0 6 ------- null}
h -t 1.10816 -s 0 -d 1 -p tcp -e 1540 -c 0 -i 9 -a 0 -x {0.0 2.0 -1 ------- null}
- -t 1.11816 -s 1 -d 2 -p tcp -e 1540 -c 0 -i 7 -a 0 -x {0.0 2.0 4 ------- null}
h -t 1.11816 -s 1 -d 2 -p tcp -e 1540 -c 0 -i 7 -a 0 -x {0.0 2.0 -1 ------- null}
r -t 1.11816 -s 0 -d 1 -p tcp -e 1540 -c 0 -i 8 -a 0 -x {0.0 2.0 5 ------- null}
+ -t 1.11816 -s 1 -d 2 -p tcp -e 1540 -c 0 -i 8 -a 0 -x {0.0 2.0 5 ------- null}
r -t 1.119392 -s 0 -d 1 -p tcp -e 1540 -c 0 -i 9 -a 0 -x {0.0 2.0 6 ------- null}
+ -t 1.119392 -s 1 -d 2 -p tcp -e 1540 -c 0 -i 9 -a 0 -x {0.0 2.0 6 ------- null}
r -t 1.12816 -s 1 -d 2 -p tcp -e 1540 -c 0 -i 6 -a 0 -x {0.0 2.0 3 ------- null}
+ -t 1.12816 -s 2 -d 1 -p ack -e 40 -c 0 -i 10 -a 0 -x {2.0 0.0 3 ------- null}
- -t 1.12816 -s 2 -d 1 -p ack -e 40 -c 0 -i 10 -a 0 -x {2.0 0.0 3 ------- null}
h -t 1.12816 -s 2 -d 1 -p ack -e 40 -c 0 -i 10 -a 0 -x {2.0 0.0 -1 ------- null}
- -t 1.13048 -s 1 -d 2 -p tcp -e 1540 -c 0 -i 8 -a 0 -x {0.0 2.0 5 ------- null}
h -t 1.13048 -s 1 -d 2 -p tcp -e 1540 -c 0 -i 8 -a 0 -x {0.0 2.0 -1 ------- null}
r -t 1.13848 -s 2 -d 1 -p ack -e 40 -c 0 -i 10 -a 0 -x {2.0 0.0 3 ------- null}
+ -t 1.13848 -s 1 -d 0 -p ack -e 40 -c 0 -i 10 -a 0 -x {2.0 0.0 3 ------- null}
- -t 1.13848 -s 1 -d 0 -p ack -e 40 -c 0 -i 10 -a 0 -x {2.0 0.0 3 ------- null}
h -t 1.13848 -s 1 -d 0 -p ack -e 40 -c 0 -i 10 -a 0 -x {2.0 0.0 -1 ------- null}
r -t 1.14048 -s 1 -d 2 -p tcp -e 1540 -c 0 -i 7 -a 0 -x {0.0 2.0 4 ------- null}
+ -t 1.14048 -s 2 -d 1 -p ack -e 40 -c 0 -i 11 -a 0 -x {2.0 0.0 4 ------- null}
- -t 1.14048 -s 2 -d 1 -p ack -e 40 -c 0 -i 11 -a 0 -x {2.0 0.0 4 ------- null}
h -t 1.14048 -s 2 -d 1 -p ack -e 40 -c 0 -i 11 -a 0 -x {2.0 0.0 -1 ------- null}
- -t 1.1428 -s 1 -d 2 -p tcp -e 1540 -c 0 -i 9 -a 0 -x {0.0 2.0 6 ------- null}
h -t 1.1428 -s 1 -d 2 -p tcp -e 1540 -c 0 -i 9 -a 0 -x {0.0 2.0 -1 ------- null}
r -t 1.148512 -s 1 -d 0 -p ack -e 40 -c 0 -i 10 -a 0 -x {2.0 0.0 3 ------- null}
+ -t 1.148512 -s 0 -d 1 -p tcp -e 1540 -c 0 -i 12 -a 0 -x {0.0 2.0 7 ------- null}
- -t 1.148512 -s 0 -d 1 -p tcp -e 1540 -c 0 -i 12 -a 0 -x {0.0 2.0 7 ------- null}
h -t 1.148512 -s 0 -d 1 -p tcp -e 1540 -c 0 -i 12 -a 0 -x {0.0 2.0 -1 ------- null}
+ -t 1.148512 -s 0 -d 1 -p tcp -e 1540 -c 0 -i 13 -a 0 -x {0.0 2.0 8 ------- null}
- -t 1.149744 -s 0 -d 1 -p tcp -e 1540 -c 0 -i 13 -a 0 -x {0.0 2.0 8 ------- null}
h -t 1.149744 -s 0 -d 1 -p tcp -e 1540 -c 0 -i 13 -a 0 -x {0.0 2.0 -1 ------- null}
r -t 1.1508 -s 2 -d 1 -p ack -e 40 -c 0 -i 11 -a 0 -x {2.0 0.0 4 ------- null}
+ -t 1.1508 -s 1 -d 0 -p ack -e 40 -c 0 -i 11 -a 0 -x {2.0 0.0 4 ------- null}
- -t 1.1508 -s 1 -d 0 -p ack -e 40 -c 0 -i 11 -a 0 -x {2.0 0.0 4 ------- null}
h -t 1.1508 -s 1 -d 0 -p ack -e 40 -c 0 -i 11 -a 0 -x {2.0 0.0 -1 ------- null}
r -t 1.1528 -s 1 -d 2 -p tcp -e 1540 -c 0 -i 8 -a 0 -x {0.0 2.0 5 ------- null}
+ -t 1.1528 -s 2 -d 1 -p ack -e 40 -c 0 -i 14 -a 0 -x {2.0 0.0 5 ------- null}
- -t 1.1528 -s 2 -d 1 -p ack -e 40 -c 0 -i 14 -a 0 -x {2.0 0.0 5 ------- null}
h -t 1.1528 -s 2 -d 1 -p ack -e 40 -c 0 -i 14 -a 0 -x {2.0 0.0 -1 ------- null}
r -t 1.159744 -s 0 -d 1 -p tcp -e 1540 -c 0 -i 12 -a 0 -x {0.0 2.0 7 ------- null}
+ -t 1.159744 -s 1 -d 2 -p tcp -e 1540 -c 0 -i 12 -a 0 -x {0.0 2.0 7 ------- null}
- -t 1.159744 -s 1 -d 2 -p tcp -e 1540 -c 0 -i 12 -a 0 -x {0.0 2.0 7 ------- null}
h -t 1.159744 -s 1 -d 2 -p tcp -e 1540 -c 0 -i 12 -a 0 -x {0.0 2.0 -1 ------- null}
r -t 1.160832 -s 1 -d 0 -p ack -e 40 -c 0 -i 11 -a 0 -x {2.0 0.0 4 ------- null}
+ -t 1.160832 -s 0 -d 1 -p tcp -e 1540 -c 0 -i 15 -a 0 -x {0.0 2.0 9 ------- null}
- -t 1.160832 -s 0 -d 1 -p tcp -e 1540 -c 0 -i 15 -a 0 -x {0.0 2.0 9 ------- null}
h -t 1.160832 -s 0 -d 1 -p tcp -e 1540 -c 0 -i 15 -a 0 -x {0.0 2.0 -1 ------- null}
+ -t 1.160832 -s 0 -d 1 -p tcp -e 1540 -c 0 -i 16 -a 0 -x {0.0 2.0 10 ------- null}
r -t 1.160976 -s 0 -d 1 -p tcp -e 1540 -c 0 -i 13 -a 0 -x {0.0 2.0 8 ------- null}
+ -t 1.160976 -s 1 -d 2 -p tcp -e 1540 -c 0 -i 13 -a 0 -x {0.0 2.0 8 ------- null}
- -t 1.162064 -s 0 -d 1 -p tcp -e 1540 -c 0 -i 16 -a 0 -x {0.0 2.0 10 ------- null}
h -t 1.162064 -s 0 -d 1 -p tcp -e 1540 -c 0 -i 16 -a 0 -x {0.0 2.0 -1 ------- null}
r -t 1.16312 -s 2 -d 1 -p ack -e 40 -c 0 -i 14 -a 0 -x {2.0 0.0 5 ------- null}
+ -t 1.16312 -s 1 -d 0 -p ack -e 40 -c 0 -i 14 -a 0 -x {2.0 0.0 5 ------- null}
- -t 1.16312 -s 1 -d 0 -p ack -e 40 -c 0 -i 14 -a 0 -x {2.0 0.0 5 ------- null}
h -t 1.16312 -s 1 -d 0 -p ack -e 40 -c 0 -i 14 -a 0 -x {2.0 0.0 -1 ------- null}
r -t 1.16512 -s 1 -d 2 -p tcp -e 1540 -c 0 -i 9 -a 0 -x {0.0 2.0 6 ------- null}
+ -t 1.16512 -s 2 -d 1 -p ack -e 40 -c 0 -i 17 -a 0 -x {2.0 0.0 6 ------- null}
- -t 1.16512 -s 2 -d 1 -p ack -e 40 -c 0 -i 17 -a 0 -x {2.0 0.0 6 ------- null}
h -t 1.16512 -s 2 -d 1 -p ack -e 40 -c 0 -i 17 -a 0 -x {2.0 0.0 -1 ------- null}
- -t 1.172064 -s 1 -d 2 -p tcp -e 1540 -c 0 -i 13 -a 0 -x {0.0 2.0 8 ------- null}
h -t 1.172064 -s 1 -d 2 -p tcp -e 1540 -c 0 -i 13 -a 0 -x {0.0 2.0 -1 ------- null}
r -t 1.172064 -s 0 -d 1 -p tcp -e 1540 -c 0 -i 15 -a 0 -x {0.0 2.0 9 ------- null}
+ -t 1.172064 -s 1 -d 2 -p tcp -e 1540 -c 0 -i 15 -a 0 -x {0.0 2.0 9 ------- null}
r -t 1.173152 -s 1 -d 0 -p ack -e 40 -c 0 -i 14 -a 0 -x {2.0 0.0 5 ------- null}
+ -t 1.173152 -s 0 -d 1 -p tcp -e 1540 -c 0 -i 18 -a 0 -x {0.0 2.0 11 ------- null}
- -t 1.173152 -s 0 -d 1 -p tcp -e 1540 -c 0 -i 18 -a 0 -x {0.0 2.0 11 ------- null}
h -t 1.173152 -s 0 -d 1 -p tcp -e 1540 -c 0 -i 18 -a 0 -x {0.0 2.0 -1 ------- null}
+ -t 1.173152 -s 0 -d 1 -p tcp -e 1540 -c 0 -i 19 -a 0 -x {0.0 2.0 12 ------- null}
r -t 1.173296 -s 0 -d 1 -p tcp -e 1540 -c 0 -i 16 -a 0 -x {0.0 2.0 10 ------- null}
+ -t 1.173296 -s 1 -d 2 -p tcp -e 1540 -c 0 -i 16 -a 0 -x {0.0 2.0 10 ------- null}
- -t 1.174384 -s 0 -d 1 -p tcp -e 1540 -c 0 -i 19 -a 0 -x {0.0 2.0 12 ------- null}
h -t 1.174384 -s 0 -d 1 -p tcp -e 1540 -c 0 -i 19 -a 0 -x {0.0 2.0 -1 ------- null}
r -t 1.17544 -s 2 -d 1 -p ack -e 40 -c 0 -i 17 -a 0 -x {2.0 0.0 6 ------- null}
+ -t 1.17544 -s 1 -d 0 -p ack -e 40 -c 0 -i 17 -a 0 -x {2.0 0.0 6 ------- null}
- -t 1.17544 -s 1 -d 0 -p ack -e 40 -c 0 -i 17 -a 0 -x {2.0 0.0 6 ------- null}
h -t 1.17544 -s 1 -d 0 -p ack -e 40 -c 0 -i 17 -a 0 -x {2.0 0.0 -1 ------- null}
r -t 1.182064 -s 1 -d 2 -p tcp -e 1540 -c 0 -i 12 -a 0 -x {0.0 2.0 7 ------- null}
+ -t 1.182064 -s 2 -d 1 -p ack -e 40 -c 0 -i 20 -a 0 -x {2.0 0.0 7 ------- null}
- -t 1.182064 -s 2 -d 1 -p ack -e 40 -c 0 -i 20 -a 0 -x {2.0 0.0 7 ------- null}
h -t 1.182064 -s 2 -d 1 -p ack -e 40 -c 0 -i 20 -a 0 -x {2.0 0.0 -1 ------- null}
- -t 1.184384 -s 1 -d 2 -p tcp -e 1540 -c 0 -i 15 -a 0 -x {0.0 2.0 9 ------- null}
h -t 1.184384 -s 1 -d 2 -p tcp -e 1540 -c 0 -i 15 -a 0 -x {0.0 2.0 -1 ------- null}
r -t 1.184384 -s 0 -d 1 -p tcp -e 1540 -c 0 -i 18 -a 0 -x {0.0 2.0 11 ------- null}
+ -t 1.184384 -s 1 -d 2 -p tcp -e 1540 -c 0 -i 18 -a 0 -x {0.0 2.0 11 ------- null}
r -t 1.185472 -s 1 -d 0 -p ack -e 40 -c 0 -i 17 -a 0 -x {2.0 0.0 6 ------- null}
+ -t 1.185472 -s 0 -d 1 -p tcp -e 1540 -c 0 -i 21 -a 0 -x {0.0 2.0 13 ------- null}
- -t 1.185472 -s 0 -d 1 -p tcp -e 1540 -c 0 -i 21 -a 0 -x {0.0 2.0 13 ------- null}
h -t 1.185472 -s 0 -d 1 -p tcp -e 1540 -c 0 -i 21 -a 0 -x {0.0 2.0 -1 ------- null}
+ -t 1.185472 -s 0 -d 1 -p tcp -e 1540 -c 0 -i 22 -a 0 -x {0.0 2.0 14 ------- null}
r -t 1.185616 -s 0 -d 1 -p tcp -e 1540 -c 0 -i 19 -a 0 -x {0.0 2.0 12 ------- null}
+ -t 1.185616 -s 1 -d 2 -p tcp -e 1540 -c 0 -i 19 -a 0 -x {0.0 2.0 12 ------- null}
- -t 1.186704 -s 0 -d 1 -p tcp -e 1540 -c 0 -i 22 -a 0 -x {0.0 2.0 14 ------- null}
h -t 1.186704 -s 0 -d 1 -p tcp -e 1540 -c 0 -i 22 -a 0 -x {0.0 2.0 -1 ------- null}
r -t 1.192384 -s 2 -d 1 -p ack -e 40 -c 0 -i 20 -a 0 -x {2.0 0.0 7 ------- null}
+ -t 1.192384 -s 1 -d 0 -p ack -e 40 -c 0 -i 20 -a 0 -x {2.0 0.0 7 ------- null}
- -t 1.192384 -s 1 -d 0 -p ack -e 40 -c 0 -i 20 -a 0 -x {2.0 0.0 7 ------- null}
h -t 1.192384 -s 1 -d 0 -p ack -e 40 -c 0 -i 20 -a 0 -x {2.0 0.0 -1 ------- null}
r -t 1.194384 -s 1 -d 2 -p tcp -e 1540 -c 0 -i 13 -a 0 -x {0.0 2.0 8 ------- null}
+ -t 1.194384 -s 2 -d 1 -p ack -e 40 -c 0 -i 23 -a 0 -x {2.0 0.0 8 ------- null}
- -t 1.194384 -s 2 -d 1 -p ack -e 40 -c 0 -i 23 -a 0 -x {2.0 0.0 8 ------- null}
h -t 1.194384 -s 2 -d 1 -p ack -e 40 -c 0 -i 23 -a 0 -x {2.0 0.0 -1 ------- null}
- -t 1.196704 -s 1 -d 2 -p tcp -e 1540 -c 0 -i 16 -a 0 -x {0.0 2.0 10 ------- null}
h -t 1.196704 -s 1 -d 2 -p tcp -e 1540 -c 0 -i 16 -a 0 -x {0.0 2.0 -1 ------- null}
r -t 1.196704 -s 0 -d 1 -p tcp -e 1540 -c 0 -i 21 -a 0 -x {0.0 2.0 13 ------- null}
+ -t 1.196704 -s 1 -d 2 -p tcp -e 1540 -c 0 -i 21 -a 0 -x {0.0 2.0 13 ------- null}
r -t 1.197936 -s 0 -d 1 -p tcp -e 1540 -c 0 -i 22 -a 0 -x {0.0 2.0 14 ------- null}
+ -t 1.197936 -s 1 -d 2 -p tcp -e 1540 -c 0 -i 22 -a 0 -x {0.0 2.0 14 ------- null}
r -t 1.202416 -s 1 -d 0 -p ack -e 40 -c 0 -i 20 -a 0 -x {2.0 0.0 7 ------- null}
+ -t 1.202416 -s 0 -d 1 -p tcp -e 1540 -c 0 -i 24 -a 0 -x {0.0 2.0 15 ------- null}
- -t 1.202416 -s 0 -d 1 -p tcp -e 1540 -c 0 -i 24 -a 0 -x {0.0 2.0 15 ------- null}
h -t 1.202416 -s 0 -d 1 -p tcp -e 1540 -c 0 -i 24 -a 0 -x {0.0 2.0 -1 ------- null}
+ -t 1.202416 -s 0 -d 1 -p tcp -e 1540 -c 0 -i 25 -a 0 -x {0.0 2.0 16 ------- null}
- -t 1.203648 -s 0 -d 1 -p tcp -e 1540 -c 0 -i 25 -a 0 -x {0.0 2.0 16 ------- null}
h -t 1.203648 -s 0 -d 1 -p tcp -e 1540 -c 0 -i 25 -a 0 -x {0.0 2.0 -1 ------- null}
r -t 1.204704 -s 2 -d 1 -p ack -e 40 -c 0 -i 23 -a 0 -x {2.0 0.0 8 ------- null}
+ -t 1.204704 -s 1 -d 0 -p ack -e 40 -c 0 -i 23 -a 0 -x {2.0 0.0 8 ------- null}
- -t 1.204704 -s 1 -d 0 -p ack -e 40 -c 0 -i 23 -a 0 -x {2.0 0.0 8 ------- null}
h -t 1.204704 -s 1 -d 0 -p ack -e 40 -c 0 -i 23 -a 0 -x {2.0 0.0 -1 ------- null}
r -t 1.206704 -s 1 -d 2 -p tcp -e 1540 -c 0 -i 15 -a 0 -x {0.0 2.0 9 ------- null}
+ -t 1.206704 -s 2 -d 1 -p ack -e 40 -c 0 -i 26 -a 0 -x {2.0 0.0 9 ------- null}
- -t 1.206704 -s 2 -d 1 -p ack -e 40 -c 0 -i 26 -a 0 -x {2.0 0.0 9 ------- null}
h -t 1.206704 -s 2 -d 1 -p ack -e 40 -c 0 -i 26 -a 0 -x {2.0 0.0 -1 ------- null}
- -t 1.209024 -s 1 -d 2 -p tcp -e 1540 -c 0 -i 18 -a 0 -x {0.0 2.0 11 ------- null}
h -t 1.209024 -s 1 -d 2 -p tcp -e 1540 -c 0 -i 18 -a 0 -x {0.0 2.0 -1 ------- null}
r -t 1.213648 -s 0 -d 1 -p tcp -e 1540 -c 0 -i 24 -a 0 -x {0.0 2.0 15 ------- null}
+ -t 1.213648 -s 1 -d 2 -p tcp -e 1540 -c 0 -i 24 -a 0 -x {0.0 2.0 15 ------- null}
r -t 1.214736 -s 1 -d 0 -p ack -e 40 -c 0 -i 23 -a 0 -x {2.0 0.0 8 ------- null}
+ -t 1.214736 -s 0 -d 1 -p tcp -e 1540 -c 0 -i 27 -a 0 -x {0.0 2.0 17 ------- null}
- -t 1.214736 -s 0 -d 1 -p tcp -e 1540 -c 0 -i 27 -a 0 -x {0.0 2.0 17 ------- null}
h -t 1.214736 -s 0 -d 1 -p tcp -e 1540 -c 0 -i 27 -a 0 -x {0.0 2.0 -1 ------- null}
+ -t 1.214736 -s 0 -d 1 -p tcp -e 1540 -c 0 -i 28 -a 0 -x {0.0 2.0 18 ------- null}
r -t 1.21488 -s 0 -d 1 -p tcp -e 1540 -c 0 -i 25 -a 0 -x {0.0 2.0 16 ------- null}
+ -t 1.21488 -s 1 -d 2 -p tcp -e 1540 -c 0 -i 25 -a 0 -x {0.0 2.0 16 ------- null}
- -t 1.215968 -s 0 -d 1 -p tcp -e 1540 -c 0 -i 28 -a 0 -x {0.0 2.0 18 ------- null}
h -t 1.215968 -s 0 -d 1 -p tcp -e 1540 -c 0 -i 28 -a 0 -x {0.0 2.0 -1 ------- null}
r -t 1.217024 -s 2 -d 1 -p ack -e 40 -c 0 -i 26 -a 0 -x {2.0 0.0 9 ------- null}
+ -t 1.217024 -s 1 -d 0 -p ack -e 40 -c 0 -i 26 -a 0 -x {2.0 0.0 9 ------- null}
- -t 1.217024 -s 1 -d 0 -p ack -e 40 -c 0 -i 26 -a 0 -x {2.0 0.0 9 ------- null}
h -t 1.217024 -s 1 -d 0 -p ack -e 40 -c 0 -i 26 -a 0 -x {2.0 0.0 -1 ------- null}
r -t 1.219024 -s 1 -d 2 -p tcp -e 1540 -c 0 -i 16 -a 0 -x {0.0 2.0 10 ------- null}
+ -t 1.219024 -s 2 -d 1 -p ack -e 40 -c 0 -i 29 -a 0 -x {2.0 0.0 10 ------- null}
- -t 1.219024 -s 2 -d 1 -p ack -e 40 -c 0 -i 29 -a 0 -x {2.0 0.0 10 ------- null}
h -t 1.219024 -s 2 -d 1 -p ack -e 40 -c 0 -i 29 -a 0 -x {2.0 0.0 -1 ------- null}
- -t 1.221344 -s 1 -d 2 -p tcp -e 1540 -c 0 -i 19 -a 0 -x {0.0 2.0 12 ------- null}
h -t 1.221344 -s 1 -d 2 -p tcp -e 1540 -c 0 -i 19 -a 0 -x {0.0 2.0 -1 ------- null}
r -t 1.225968 -s 0 -d 1 -p tcp -e 1540 -c 0 -i 27 -a 0 -x {0.0 2.0 17 ------- null}
+ -t 1.225968 -s 1 -d 2 -p tcp -e 1540 -c 0 -i 27 -a 0 -x {0.0 2.0 17 ------- null}
r -t 1.227056 -s 1 -d 0 -p ack -e 40 -c 0 -i 26 -a 0 -x {2.0 0.0 9 ------- null}
+ -t 1.227056 -s 0 -d 1 -p tcp -e 1540 -c 0 -i 30 -a 0 -x {0.0 2.0 19 ------- null}
- -t 1.227056 -s 0 -d 1 -p tcp -e 1540 -c 0 -i 30 -a 0 -x {0.0 2.0 19 ------- null}
h -t 1.227056 -s 0 -d 1 -p tcp -e 1540 -c 0 -i 30 -a 0 -x {0.0 2.0 -1 ------- null}
+ -t 1.227056 -s 0 -d 1 -p tcp -e 1540 -c 0 -i 31 -a 0 -x {0.0 2.0 20 ------- null}
r -t 1.2272 -s 0 -d 1 -p tcp -e 1540 -c 0 -i 28 -a 0 -x {0.0 2.0 18 ------- null}
+ -t 1.2272 -s 1 -d 2 -p tcp -e 1540 -c 0 -i 28 -a 0 -x {0.0 2.0 18 ------- null}
- -t 1.228288 -s 0 -d 1 -p tcp -e 1540 -c 0 -i 31 -a 0 -x {0.0 2.0 20 ------- null}
h -t 1.228288 -s 0 -d 1 -p tcp -e 1540 -c 0 -i 31 -a 0 -x {0.0 2.0 -1 ------- null}
r -t 1.229344 -s 2 -d 1 -p ack -e 40 -c 0 -i 29 -a 0 -x {2.0 0.0 10 ------- null}
+ -t 1.229344 -s 1 -d 0 -p ack -e 40 -c 0 -i 29 -a 0 -x {2.0 0.0 10 ------- null}
- -t 1.229344 -s 1 -d 0 -p ack -e 40 -c 0 -i 29 -a 0 -x {2.0 0.0 10 ------- null}
h -t 1.229344 -s 1 -d 0 -p ack -e 40 -c 0 -i 29 -a 0 -x {2.0 0.0 -1 ------- null}
r -t 1.231344 -s 1 -d 2 -p tcp -e 1540 -c 0 -i 18 -a 0 -x {0.0 2.0 11 ------- null}
+ -t 1.231344 -s 2 -d 1 -p ack -e 40 -c 0 -i 32 -a 0 -x {2.0 0.0 11 ------- null}
- -t 1.231344 -s 2 -d 1 -p ack -e 40 -c 0 -i 32 -a 0 -x {2.0 0.0 11 ------- null}
h -t 1.231344 -s 2 -d 1 -p ack -e 40 -c 0 -i 32 -a 0 -x {2.0 0.0 -1 ------- null}
- -t 1.233664 -s 1 -d 2 -p tcp -e 1540 -c 0 -i 21 -a 0 -x {0.0 2.0 13 ------- null}
h -t 1.233664 -s 1 -d 2 -p tcp -e 1540 -c 0 -i 21 -a 0 -x {0.0 2.0 -1 ------- null}
r -t 1.238288 -s 0 -d 1 -p tcp -e 1540 -c 0 -i 30 -a 0 -x {0.0 2.0 19 ------- null}
+ -t 1.238288 -s 1 -d 2 -p tcp -e 1540 -c 0 -i 30 -a 0 -x {0.0 2.0 19 ------- null}
r -t 1.239376 -s 1 -d 0 -p ack -e 40 -c 0 -i 29 -a 0 -x {2.0 0.0 10 ------- null}
+ -t 1.239376 -s 0 -d 1 -p tcp -e 1540 -c 0 -i 33 -a 0 -x {0.0 2.0 21 ------- null}
- -t 1.239376 -s 0 -d 1 -p tcp -e 1540 -c 0 -i 33 -a 0 -x {0.0 2.0 21 ------- null}
h -t 1.239376 -s 0 -d 1 -p tcp -e 1540 -c 0 -i 33 -a 0 -x {0.0 2.0 -1 ------- null}
+ -t 1.239376 -s 0 -d 1 -p tcp -e 1540 -c 0 -i 34 -a 0 -x {0.0 2.0 22 ------- null}
r -t 1.23952 -s 0 -d 1 -p tcp -e 1540 -c 0 -i 31 -a 0 -x {0.0 2.0 20 ------- null}
+ -t 1.23952 -s 1 -d 2 -p tcp -e 1540 -c 0 -i 31 -a 0 -x {0.0 2.0 20 ------- null}
- -t 1.240608 -s 0 -d 1 -p tcp -e 1540 -c 0 -i 34 -a 0 -x {0.0 2.0 22 ------- null}
h -t 1.240608 -s 0 -d 1 -p tcp -e 1540 -c 0 -i 34 -a 0 -x {0.0 2.0 -1 ------- null}
r -t 1.241664 -s 2 -d 1 -p ack -e 40 -c 0 -i 32 -a 0 -x {2.0 0.0 11 ------- null}
+ -t 1.241664 -s 1 -d 0 -p ack -e 40 -c 0 -i 32 -a 0 -x {2.0 0.0 11 ------- null}
- -t 1.241664 -s 1 -d 0 -p ack -e 40 -c 0 -i 32 -a 0 -x {2.0 0.0 11 ------- null}
h -t 1.241664 -s 1 -d 0 -p ack -e 40 -c 0 -i 32 -a 0 -x {2.0 0.0 -1 ------- null}
r -t 1.243664 -s 1 -d 2 -p tcp -e 1540 -c 0 -i 19 -a 0 -x {0.0 2.0 12 ------- null}
+ -t 1.243664 -s 2 -d 1 -p ack -e 40 -c 0 -i 35 -a 0 -x {2.0 0.0 12 ------- null}
- -t 1.243664 -s 2 -d 1 -p ack -e 40 -c 0 -i 35 -a 0 -x {2.0 0.0 12 ------- null}
h -t 1.243664 -s 2 -d 1 -p ack -e 40 -c 0 -i 35 -a 0 -x {2.0 0.0 -1 ------- null}
- -t 1.245984 -s 1 -d 2 -p tcp -e 1540 -c 0 -i 22 -a 0 -x {0.0 2.0 14 ------- null}
h -t 1.245984 -s 1 -d 2 -p tcp -e 1540 -c 0 -i 22 -a 0 -x {0.0 2.0 -1 ------- null}
r -t 1.250608 -s 0 -d 1 -p tcp -e 1540 -c 0 -i 33 -a 0 -x {0.0 2.0 21 ------- null}
+ -t 1.250608 -s 1 -d 2 -p tcp -e 1540 -c 0 -i 33 -a 0 -x {0.0 2.0 21 ------- null}
r -t 1.251696 -s 1 -d 0 -p ack -e 40 -c 0 -i 32 -a 0 -x {2.0 0.0 11 ------- null}
+ -t 1.251696 -s 0 -d 1 -p tcp -e 1540 -c 0 -i 36 -a 0 -x {0.0 2.0 23 ------- null}
- -t 1.251696 -s 0 -d 1 -p tcp -e 1540 -c 0 -i 36 -a 0 -x {0.0 2.0 23 ------- null}
h -t 1.251696 -s 0 -d 1 -p tcp -e 1540 -c 0 -i 36 -a 0 -x {0.0 2.0 -1 ------- null}
+ -t 1.251696 -s 0 -d 1 -p tcp -e 1540 -c 0 -i 37 -a 0 -x {0.0 2.0 24 ------- null}
r -t 1.25184 -s 0 -d 1 -p tcp -e 1540 -c 0 -i 34 -a 0 -x {0.0 2.0 22 ------- null}
+ -t 1.25184 -s 1 -d 2 -p tcp -e 1540 -c 0 -i 34 -a 0 -x {0.0 2.0 22 ------- null}
- -t 1.252928 -s 0 -d 1 -p tcp -e 1540 -c 0 -i 37 -a 0 -x {0.0 2.0 24 ------- null}
h -t 1.252928 -s 0 -d 1 -p tcp -e 1540 -c 0 -i 37 -a 0 -x {0.0 2.0 -1 ------- null}
r -t 1.253984 -s 2 -d 1 -p ack -e 40 -c 0 -i 35 -a 0 -x {2.0 0.0 12 ------- null}
+ -t 1.253984 -s 1 -d 0 -p ack -e 40 -c 0 -i 35 -a 0 -x {2.0 0.0 12 ------- null}
- -t 1.253984 -s 1 -d 0 -p ack -e 40 -c 0 -i 35 -a 0 -x {2.0 0.0 12 ------- null}
h -t 1.253984 -s 1 -d 0 -p ack -e 40 -c 0 -i 35 -a 0 -x {2.0 0.0 -1 ------- null}
r -t 1.255984 -s 1 -d 2 -p tcp -e 1540 -c 0 -i 21 -a 0 -x {0.0 2.0 13 ------- null}
+ -t 1.255984 -s 2 -d 1 -p ack -e 40 -c 0 -i 38 -a 0 -x {2.0 0.0 13 ------- null}
- -t 1.255984 -s 2 -d 1 -p ack -e 40 -c 0 -i 38 -a 0 -x {2.0 0.0 13 ------- null}
h -t 1.255984 -s 2 -d 1 -p ack -e 40 -c 0 -i 38 -a 0 -x {2.0 0.0 -1 ------- null}
- -t 1.258304 -s 1 -d 2 -p tcp -e 1540 -c 0 -i 24 -a 0 -x {0.0 2.0 15 ------- null}
h -t 1.258304 -s 1 -d 2 -p tcp -e 1540 -c 0 -i 24 -a 0 -x {0.0 2.0 -1 ------- null}
r -t 1.262928 -s 0 -d 1 -p tcp -e 1540 -c 0 -i 36 -a 0 -x {0.0 2.0 23 ------- null}
+ -t 1.262928 -s 1 -d 2 -p tcp -e 1540 -c 0 -i 36 -a 0 -x {0.0 2.0 23 ------- null}
r -t 1.264016 -s 1 -d 0 -p ack -e 40 -c 0 -i 35 -a 0 -x {2.0 0.0 12 ------- null}
+ -t 1.264016 -s 0 -d 1 -p tcp -e 1540 -c 0 -i 39 -a 0 -x {0.0 2.0 25 ------- null}
- -t 1.264016 -s 0 -d 1 -p tcp -e 1540 -c 0 -i 39 -a 0 -x {0.0 2.0 25 ------- null}
h -t 1.264016 -s 0 -d 1 -p tcp -e 1540 -c 0 -i 39 -a 0 -x {0.0 2.0 -1 ------- null}
+ -t 1.264016 -s 0 -d 1 -p tcp -e 1540 -c 0 -i 40 -a 0 -x {0.0 2.0 26 ------- null}
r -t 1.26416 -s 0 -d 1 -p tcp -e 1540 -c 0 -i 37 -a 0 -x {0.0 2.0 24 ------- null}
+ -t 1.26416 -s 1 -d 2 -p tcp -e 1540 -c 0 -i 37 -a 0 -x {0.0 2.0 24 ------- null}
- -t 1.265248 -s 0 -d 1 -p tcp -e 1540 -c 0 -i 40 -a 0 -x {0.0 2.0 26 ------- null}
h -t 1.265248 -s 0 -d 1 -p tcp -e 1540 -c 0 -i 40 -a 0 -x {0.0 2.0 -1 ------- null}
r -t 1.266304 -s 2 -d 1 -p ack -e 40 -c 0 -i 38 -a 0 -x {2.0 0.0 13 ------- null}
+ -t 1.266304 -s 1 -d 0 -p ack -e 40 -c 0 -i 38 -a 0 -x {2.0 0.0 13 ------- null}
- -t 1.266304 -s 1 -d 0 -p ack -e 40 -c 0 -i 38 -a 0 -x {2.0 0.0 13 ------- null}
h -t 1.266304 -s 1 -d 0 -p ack -e 40 -c 0 -i 38 -a 0 -x {2.0 0.0 -1 ------- null}
r -t 1.268304 -s 1 -d 2 -p tcp -e 1540 -c 0 -i 22 -a 0 -x {0.0 2.0 14 ------- null}
+ -t 1.268304 -s 2 -d 1 -p ack -e 40 -c 0 -i 41 -a 0 -x {2.0 0.0 14 ------- null}
- -t 1.268304 -s 2 -d 1 -p ack -e 40 -c 0 -i 41 -a 0 -x {2.0 0.0 14 ------- null}
h -t 1.268304 -s 2 -d 1 -p ack -e 40 -c 0 -i 41 -a 0 -x {2.0 0.0 -1 ------- null}
- -t 1.270624 -s 1 -d 2 -p tcp -e 1540 -c 0 -i 25 -a 0 -x {0.0 2.0 16 ------- null}
h -t 1.270624 -s 1 -d 2 -p tcp -e 1540 -c 0 -i 25 -a 0 -x {0.0 2.0 -1 ------- null}
r -t 1.275248 -s 0 -d 1 -p tcp -e 1540 -c 0 -i 39 -a 0 -x {0.0 2.0 25 ------- null}
+ -t 1.275248 -s 1 -d 2 -p tcp -e 1540 -c 0 -i 39 -a 0 -x {0.0 2.0 25 ------- null}
r -t 1.276336 -s 1 -d 0 -p ack -e 40 -c 0 -i 38 -a 0 -x {2.0 0.0 13 ------- null}
+ -t 1.276336 -s 0 -d 1 -p tcp -e 1540 -c 0 -i 42 -a 0 -x {0.0 2.0 27 ------- null}
- -t 1.276336 -s 0 -d 1 -p tcp -e 1540 -c 0 -i 42 -a 0 -x {0.0 2.0 27 ------- null}
h -t 1.276336 -s 0 -d 1 -p tcp -e 1540 -c 0 -i 42 -a 0 -x {0.0 2.0 -1 ------- null}
+ -t 1.276336 -s 0 -d 1 -p tcp -e 1540 -c 0 -i 43 -a 0 -x {0.0 2.0 28 ------- null}
r -t 1.27648 -s 0 -d 1 -p tcp -e 1540 -c 0 -i 40 -a 0 -x {0.0 2.0 26 ------- null}
+ -t 1.27648 -s 1 -d 2 -p tcp -e 1540 -c 0 -i 40 -a 0 -x {0.0 2.0 26 ------- null}
- -t 1.277568 -s 0 -d 1 -p tcp -e 1540 -c 0 -i 43 -a 0 -x {0.0 2.0 28 ------- null}
h -t 1.277568 -s 0 -d 1 -p tcp -e 1540 -c 0 -i 43 -a 0 -x {0.0 2.0 -1 ------- null}
r -t 1.278624 -s 2 -d 1 -p ack -e 40 -c 0 -i 41 -a 0 -x {2.0 0.0 14 ------- null}
+ -t 1.278624 -s 1 -d 0 -p ack -e 40 -c 0 -i 41 -a 0 -x {2.0 0.0 14 ------- null}
- -t 1.278624 -s 1 -d 0 -p ack -e 40 -c 0 -i 41 -a 0 -x {2.0 0.0 14 ------- null}
h -t 1.278624 -s 1 -d 0 -p ack -e 40 -c 0 -i 41 -a 0 -x {2.0 0.0 -1 ------- null}
r -t 1.280624 -s 1 -d 2 -p tcp -e 1540 -c 0 -i 24 -a 0 -x {0.0 2.0 15 ------- null}
+ -t 1.280624 -s 2 -d 1 -p ack -e 40 -c 0 -i 44 -a 0 -x {2.0 0.0 15 ------- null}
- -t 1.280624 -s 2 -d 1 -p ack -e 40 -c 0 -i 44 -a 0 -x {2.0 0.0 15 ------- null}
h -t 1.280624 -s 2 -d 1 -p ack -e 40 -c 0 -i 44 -a 0 -x {2.0 0.0 -1 ------- null}
- -t 1.282944 -s 1 -d 2 -p tcp -e 1540 -c 0 -i 27 -a 0 -x {0.0 2.0 17 ------- null}
h -t 1.282944 -s 1 -d 2 -p tcp -e 1540 -c 0 -i 27 -a 0 -x {0.0 2.0 -1 ------- null}
r -t 1.287568 -s 0 -d 1 -p tcp -e 1540 -c 0 -i 42 -a 0 -x {0.0 2.0 27 ------- null}
+ -t 1.287568 -s 1 -d 2 -p tcp -e 1540 -c 0 -i 42 -a 0 -x {0.0 2.0 27 ------- null}
r -t 1.288656 -s 1 -d 0 -p ack -e 40 -c 0 -i 41 -a 0 -x {2.0 0.0 14 ------- null}
+ -t 1.288656 -s 0 -d 1 -p tcp -e 1540 -c 0 -i 45 -a 0 -x {0.0 2.0 29 ------- null}
- -t 1.288656 -s 0 -d 1 -p tcp -e 1540 -c 0 -i 45 -a 0 -x {0.0 2.0 29 ------- null}
h -t 1.288656 -s 0 -d 1 -p tcp -e 1540 -c 0 -i 45 -a 0 -x {0.0 2.0 -1 ------- null}
+ -t 1.288656 -s 0 -d 1 -p tcp -e 1540 -c 0 -i 46 -a 0 -x {0.0 2.0 30 ------- null}
r -t 1.2888 -s 0 -d 1 -p tcp -e 1540 -c 0 -i 43 -a 0 -x {0.0 2.0 28 ------- null}
+ -t 1.2888 -s 1 -d 2 -p tcp -e 1540 -c 0 -i 43 -a 0 -x {0.0 2.0 28 ------- null}
- -t 1.289888 -s 0 -d 1 -p tcp -e 1540 -c 0 -i 46 -a 0 -x {0.0 2.0 30 ------- null}
h -t 1.289888 -s 0 -d 1 -p tcp -e 1540 -c 0 -i 46 -a 0 -x {0.0 2.0 -1 ------- null}
r -t 1.290944 -s 2 -d 1 -p ack -e 40 -c 0 -i 44 -a 0 -x {2.0 0.0 15 ------- null}
+ -t 1.290944 -s 1 -d 0 -p ack -e 40 -c 0 -i 44 -a 0 -x {2.0 0.0 15 ------- null}
- -t 1.290944 -s 1 -d 0 -p ack -e 40 -c 0 -i 44 -a 0 -x {2.0 0.0 15 ------- null}
h -t 1.290944 -s 1 -d 0 -p ack -e 40 -c 0 -i 44 -a 0 -x {2.0 0.0 -1 ------- null}
r -t 1.292944 -s 1 -d 2 -p tcp -e 1540 -c 0 -i 25 -a 0 -x {0.0 2.0 16 ------- null}
+ -t 1.292944 -s 2 -d 1 -p ack -e 40 -c 0 -i 47 -a 0 -x {2.0 0.0 16 ------- null}
- -t 1.292944 -s 2 -d 1 -p ack -e 40 -c 0 -i 47 -a 0 -x {2.0 0.0 16 ------- null}
h -t 1.292944 -s 2 -d 1 -p ack -e 40 -c 0 -i 47 -a 0 -x {2.0 0.0 -1 ------- null}
- -t 1.295264 -s 1 -d 2 -p tcp -e 1540 -c 0 -i 28 -a 0 -x {0.0 2.0 18 ------- null}
h -t 1.295264 -s 1 -d 2 -p tcp -e 1540 -c 0 -i 28 -a 0 -x {0.0 2.0 -1 ------- null}
r -t 1.299888 -s 0 -d 1 -p tcp -e 1540 -c 0 -i 45 -a 0 -x {0.0 2.0 29 ------- null}
+ -t 1.299888 -s 1 -d 2 -p tcp -e 1540 -c 0 -i 45 -a 0 -x {0.0 2.0 29 ------- null}
r -t 1.300976 -s 1 -d 0 -p ack -e 40 -c 0 -i 44 -a 0 -x {2.0 0.0 15 ------- null}
+ -t 1.300976 -s 0 -d 1 -p tcp -e 1540 -c 0 -i 48 -a 0 -x {0.0 2.0 31 ------- null}
- -t 1.300976 -s 0 -d 1 -p tcp -e 1540 -c 0 -i 48 -a 0 -x {0.0 2.0 31 ------- null}
h -t 1.300976 -s 0 -d 1 -p tcp -e 1540 -c 0 -i 48 -a 0 -x {0.0 2.0 -1 ------- null}
+ -t 1.300976 -s 0 -d 1 -p tcp -e 1540 -c 0 -i 49 -a 0 -x {0.0 2.0 32 ------- null}
r -t 1.30112 -s 0 -d 1 -p tcp -e 1540 -c 0 -i 46 -a 0 -x {0.0 2.0 30 ------- null}
+ -t 1.30112 -s 1 -d 2 -p tcp -e 1540 -c 0 -i 46 -a 0 -x {0.0 2.0 30 ------- null}
- -t 1.302208 -s 0 -d 1 -p tcp -e 1540 -c 0 -i 49 -a 0 -x {0.0 2.0 32 ------- null}
h -t 1.302208 -s 0 -d 1 -p tcp -e 1540 -c 0 -i 49 -a 0 -x {0.0 2.0 -1 ------- null}
r -t 1.303264 -s 2 -d 1 -p ack -e 40 -c 0 -i 47 -a 0 -x {2.0 0.0 16 ------- null}
+ -t 1.303264 -s 1 -d 0 -p ack -e 40 -c 0 -i 47 -a 0 -x {2.0 0.0 16 ------- null}
- -t 1.303264 -s 1 -d 0 -p ack -e 40 -c 0 -i 47 -a 0 -x {2.0 0.0 16 ------- null}
h -t 1.303264 -s 1 -d 0 -p ack -e 40 -c 0 -i 47 -a 0 -x {2.0 0.0 -1 ------- null}
r -t 1.305264 -s 1 -d 2 -p tcp -e 1540 -c 0 -i 27 -a 0 -x {0.0 2.0 17 ------- null}
+ -t 1.305264 -s 2 -d 1 -p ack -e 40 -c 0 -i 50 -a 0 -x {2.0 0.0 17 ------- null}
- -t 1.305264 -s 2 -d 1 -p ack -e 40 -c 0 -i 50 -a 0 -x {2.0 0.0 17 ------- null}
h -t 1.305264 -s 2 -d 1 -p ack -e 40 -c 0 -i 50 -a 0 -x {2.0 0.0 -1 ------- null}
- -t 1.307584 -s 1 -d 2 -p tcp -e 1540 -c 0 -i 30 -a 0 -x {0.0 2.0 19 ------- null}
h -t 1.307584 -s 1 -d 2 -p tcp -e 1540 -c 0 -i 30 -a 0 -x {0.0 2.0 -1 ------- null}
r -t 1.312208 -s 0 -d 1 -p tcp -e 1540 -c 0 -i 48 -a 0 -x {0.0 2.0 31 ------- null}
+ -t 1.312208 -s 1 -d 2 -p tcp -e 1540 -c 0 -i 48 -a 0 -x {0.0 2.0 31 ------- null}