+ 1 0 1 tcp 40 ------- 0 0.0 2.0 0 0
- 1 0 1 tcp 40 ------- 0 0.0 2.0 0 0
r 1.010032 0 1 tcp 40 ------- 0 0.0 2.0 0 0
+ 1.010032 1 2 tcp 40 ------- 0 0.0 2.0 0 0
- 1.010032 1 2 tcp 40 ------- 0 0.0 2.0 0 0
r 1.020352 1 2 tcp 40 ------- 0 0.0 2.0 0 0
+ 1.020352 2 1 ack 40 ------- 0 2.0 0.0 0 1
- 1.020352 2 1 ack 40 ------- 0 2.0 0.0 0 1
r 1.030672 2 1 ack 40 ------- 0 2.0 0.0 0 1
+ 1.030672 1 0 ack 40 ------- 0 2.0 0.0 0 1
- 1.030672 1 0 ack 40 ------- 0 2.0 0.0 0 1
r 1.040704 1 0 ack 40 ------- 0 2.0 0.0 0 1
+ 1.040704 0 1 tcp 1540 ------- 0 0.0 2.0 1 2
- 1.040704 0 1 tcp 1540 ------- 0 0.0 2.0 1 2
+ 1.040704 0 1 tcp 1540 ------- 0 0.0 2.0 2 3
- 1.041936 0 1 tcp 1540 ------- 0 0.0 2.0 2 3
r 1.051936 0 1 tcp 1540 ------- 0 0.0 2.0 1 2
+ 1.051936 1 2 tcp 1540 ------- 0 0.0 2.0 1 2
- 1.051936 1 2 tcp 1540 ------- 0 0.0 2.0 1 2
r 1.053168 0 1 tcp 1540 ------- 0 0.0 2.0 2 3
+ 1.053168 1 2 tcp 1540 ------- 0 0.0 2.0 2 3
- 1.064256 1 2 tcp 1540 ------- 0 0.0 2.0 2 3
r 1.074256 1 2 tcp 1540 ------- 0 0.0 2.0 1 2
+ 1.074256 2 1 ack 40 ------- 0 2.0 0.0 1 4
- 1.074256 2 1 ack 40 ------- 0 2.0 0.0 1 4
r 1.084576 2 1 ack 40 ------- 0 2.0 0.0 1 4
+ 1.084576 1 0 ack 40 ------- 0 2.0 0.0 1 4
- 1.084576 1 0 ack 40 ------- 0 2.0 0.0 1 4
r 1.086576 1 2 tcp 1540 ------- 0 0.0 2.0 2 3
+ 1.086576 2 1 ack 40 ------- 0 2.0 0.0 2 5
- 1.086576 2 1 ack 40 ------- 0 2.0 0.0 2 5
r 1.094608 1 0 ack 40 ------- 0 2.0 0.0 1 4
+ 1.094608 0 1 tcp 1540 ------- 0 0.0 2.0 3 6
- 1.094608 0 1 tcp 1540 ------- 0 0.0 2.0 3 6
+ 1.094608 0 1 tcp 1540 ------- 0 0.0 2.0 4 7
- 1.09584 0 1 tcp 1540 ------- 0 0.0 2.0 4 7
r 1.096896 2 1 ack 40 ------- 0 2.0 0.0 2 5
+ 1.096896 1 0 ack 40 ------- 0 2.0 0.0 2 5
- 1.096896 1 0 ack 40 ------- 0 2.0 0.0 2 5
r 1.10584 0 1 tcp 1540 ------- 0 0.0 2.0 3 6
+ 1.10584 1 2 tcp 1540 ------- 0 0.0 2.0 3 6
- 1.10584 1 2 tcp 1540 ------- 0 0.0 2.0 3 6
r 1.106928 1 0 ack 40 ------- 0 2.0 0.0 2 5
+ 1.106928 0 1 tcp 1540 ------- 0 0.0 2.0 5 8
- 1.106928 0 1 tcp 1540 ------- 0 0.0 2.0 5 8
+ 1.106928 0 1 tcp 1540 ------- 0 0.0 2.0 6 9
r 1.107072 0 1 tcp 1540 ------- 0 0.0 2.0 4 7
+ 1.107072 1 2 tcp 1540 ------- 0 0.0 2.0 4 7
- 1.10816 0 1 tcp 1540 ------- 0 0.0 2.0 6 9
- 1.11816 1 2 tcp 1540 ------- 0 0.0 2.0 4 7
r 1.11816 0 1 tcp 1540 ------- 0 0.0 2.0 5 8
+ 1.11816 1 2 tcp 1540 ------- 0 0.0 2.0 5 8
r 1.119392 0 1 tcp 1540 ------- 0 0.0 2.0 6 9
+ 1.119392 1 2 tcp 1540 ------- 0 0.0 2.0 6 9
r 1.12816 1 2 tcp 1540 ------- 0 0.0 2.0 3 6
+ 1.12816 2 1 ack 40 ------- 0 2.0 0.0 3 10
- 1.12816 2 1 ack 40 ------- 0 2.0 0.0 3 10
- 1.13048 1 2 tcp 1540 ------- 0 0.0 2.0 5 8
r 1.13848 2 1 ack 40 ------- 0 2.0 0.0 3 10
+ 1.13848 1 0 ack 40 ------- 0 2.0 0.0 3 10
- 1.13848 1 0 ack 40 ------- 0 2.0 0.0 3 10
r 1.14048 1 2 tcp 1540 ------- 0 0.0 2.0 4 7
+ 1.14048 2 1 ack 40 ------- 0 2.0 0.0 4 11
- 1.14048 2 1 ack 40 ------- 0 2.0 0.0 4 11
- 1.1428 1 2 tcp 1540 ------- 0 0.0 2.0 6 9
r 1.148512 1 0 ack 40 ------- 0 2.0 0.0 3 10
+ 1.148512 0 1 tcp 1540 ------- 0 0.0 2.0 7 12
- 1.148512 0 1 tcp 1540 ------- 0 0.0 2.0 7 12
+ 1.148512 0 1 tcp 1540 ------- 0 0.0 2.0 8 13
- 1.149744 0 1 tcp 1540 ------- 0 0.0 2.0 8 13
r 1.1508 2 1 ack 40 ------- 0 2.0 0.0 4 11
+ 1.1508 1 0 ack 40 ------- 0 2.0 0.0 4 11
- 1.1508 1 0 ack 40 ------- 0 2.0 0.0 4 11
r 1.1528 1 2 tcp 1540 ------- 0 0.0 2.0 5 8
+ 1.1528 2 1 ack 40 ------- 0 2.0 0.0 5 14
- 1.1528 2 1 ack 40 ------- 0 2.0 0.0 5 14
r 1.159744 0 1 tcp 1540 ------- 0 0.0 2.0 7 12
+ 1.159744 1 2 tcp 1540 ------- 0 0.0 2.0 7 12
- 1.159744 1 2 tcp 1540 ------- 0 0.0 2.0 7 12
r 1.160832 1 0 ack 40 ------- 0 2.0 0.0 4 11
+ 1.160832 0 1 tcp 1540 ------- 0 0.0 2.0 9 15
- 1.160832 0 1 tcp 1540 ------- 0 0.0 2.0 9 15
+ 1.160832 0 1 tcp 1540 ------- 0 0.0 2.0 10 16
r 1.160976 0 1 tcp 1540 ------- 0 0.0 2.0 8 13
+ 1.160976 1 2 tcp 1540 ------- 0 0.0 2.0 8 13
- 1.162064 0 1 tcp 1540 ------- 0 0.0 2.0 10 16
r 1.16312 2 1 ack 40 ------- 0 2.0 0.0 5 14
+ 1.16312 1 0 ack 40 ------- 0 2.0 0.0 5 14
- 1.16312 1 0 ack 40 ------- 0 2.0 0.0 5 14
r 1.16512 1 2 tcp 1540 ------- 0 0.0 2.0 6 9
+ 1.16512 2 1 ack 40 ------- 0 2.0 0.0 6 17
- 1.16512 2 1 ack 40 ------- 0 2.0 0.0 6 17
- 1.172064 1 2 tcp 1540 ------- 0 0.0 2.0 8 13
r 1.172064 0 1 tcp 1540 ------- 0 0.0 2.0 9 15
+ 1.172064 1 2 tcp 1540 ------- 0 0.0 2.0 9 15
r 1.173152 1 0 ack 40 ------- 0 2.0 0.0 5 14
+ 1.173152 0 1 tcp 1540 ------- 0 0.0 2.0 11 18
- 1.173152 0 1 tcp 1540 ------- 0 0.0 2.0 11 18
+ 1.173152 0 1 tcp 1540 ------- 0 0.0 2.0 12 19
r 1.173296 0 1 tcp 1540 ------- 0 0.0 2.0 10 16
+ 1.173296 1 2 tcp 1540 ------- 0 0.0 2.0 10 16
- 1.174384 0 1 tcp 1540 ------- 0 0.0 2.0 12 19
r 1.17544 2 1 ack 40 ------- 0 2.0 0.0 6 17
+ 1.17544 1 0 ack 40 ------- 0 2.0 0.0 6 17
- 1.17544 1 0 ack 40 ------- 0 2.0 0.0 6 17
r 1.182064 1 2 tcp 1540 ------- 0 0.0 2.0 7 12
+ 1.182064 2 1 ack 40 ------- 0 2.0 0.0 7 20
- 1.182064 2 1 ack 40 ------- 0 2.0 0.0 7 20
- 1.184384 1 2 tcp 1540 ------- 0 0.0 2.0 9 15
r 1.184384 0 1 tcp 1540 ------- 0 0.0 2.0 11 18
+ 1.184384 1 2 tcp 1540 ------- 0 0.0 2.0 11 18
r 1.185472 1 0 ack 40 ------- 0 2.0 0.0 6 17
+ 1.185472 0 1 tcp 1540 ------- 0 0.0 2.0 13 21
- 1.185472 0 1 tcp 1540 ------- 0 0.0 2.0 13 21
+ 1.185472 0 1 tcp 1540 ------- 0 0.0 2.0 14 22
r 1.185616 0 1 tcp 1540 ------- 0 0.0 2.0 12 19
+ 1.185616 1 2 tcp 1540 ------- 0 0.0 2.0 12 19
- 1.186704 0 1 tcp 1540 ------- 0 0.0 2.0 14 22
r 1.192384 2 1 ack 40 ------- 0 2.0 0.0 7 20
+ 1.192384 1 0 ack 40 ------- 0 2.0 0.0 7 20
- 1.192384 1 0 ack 40 ------- 0 2.0 0.0 7 20
r 1.194384 1 2 tcp 1540 ------- 0 0.0 2.0 8 13
+ 1.194384 2 1 ack 40 ------- 0 2.0 0.0 8 23
- 1.194384 2 1 ack 40 ------- 0 2.0 0.0 8 23
- 1.196704 1 2 tcp 1540 ------- 0 0.0 2.0 10 16
r 1.196704 0 1 tcp 1540 ------- 0 0.0 2.0 13 21
+ 1.196704 1 2 tcp 1540 ------- 0 0.0 2.0 13 21
r 1.197936 0 1 tcp 1540 ------- 0 0.0 2.0 14 22
+ 1.197936 1 2 tcp 1540 ------- 0 0.0 2.0 14 22
r 1.202416 1 0 ack 40 ------- 0 2.0 0.0 7 20
+ 1.202416 0 1 tcp 1540 ------- 0 0.0 2.0 15 24
- 1.202416 0 1 tcp 1540 ------- 0 0.0 2.0 15 24
+ 1.202416 0 1 tcp 1540 ------- 0 0.0 2.0 16 25
- 1.203648 0 1 tcp 1540 ------- 0 0.0 2.0 16 25
r 1.204704 2 1 ack 40 ------- 0 2.0 0.0 8 23
+ 1.204704 1 0 ack 40 ------- 0 2.0 0.0 8 23
- 1.204704 1 0 ack 40 ------- 0 2.0 0.0 8 23
r 1.206704 1 2 tcp 1540 ------- 0 0.0 2.0 9 15
+ 1.206704 2 1 ack 40 ------- 0 2.0 0.0 9 26
- 1.206704 2 1 ack 40 ------- 0 2.0 0.0 9 26
- 1.209024 1 2 tcp 1540 ------- 0 0.0 2.0 11 18
r 1.213648 0 1 tcp 1540 ------- 0 0.0 2.0 15 24
+ 1.213648 1 2 tcp 1540 ------- 0 0.0 2.0 15 24
r 1.214736 1 0 ack 40 ------- 0 2.0 0.0 8 23
+ 1.214736 0 1 tcp 1540 ------- 0 0.0 2.0 17 27
- 1.214736 0 1 tcp 1540 ------- 0 0.0 2.0 17 27
+ 1.214736 0 1 tcp 1540 ------- 0 0.0 2.0 18 28
r 1.21488 0 1 tcp 1540 ------- 0 0.0 2.0 16 25
+ 1.21488 1 2 tcp 1540 ------- 0 0.0 2.0 16 25
- 1.215968 0 1 tcp 1540 ------- 0 0.0 2.0 18 28
r 1.217024 2 1 ack 40 ------- 0 2.0 0.0 9 26
+ 1.217024 1 0 ack 40 ------- 0 2.0 0.0 9 26
- 1.217024 1 0 ack 40 ------- 0 2.0 0.0 9 26
r 1.219024 1 2 tcp 1540 ------- 0 0.0 2.0 10 16
+ 1.219024 2 1 ack 40 ------- 0 2.0 0.0 10 29
- 1.219024 2 1 ack 40 ------- 0 2.0 0.0 10 29
- 1.221344 1 2 tcp 1540 ------- 0 0.0 2.0 12 19
r 1.225968 0 1 tcp 1540 ------- 0 0.0 2.0 17 27
+ 1.225968 1 2 tcp 1540 ------- 0 0.0 2.0 17 27
r 1.227056 1 0 ack 40 ------- 0 2.0 0.0 9 26
+ 1.227056 0 1 tcp 1540 ------- 0 0.0 2.0 19 30
- 1.227056 0 1 tcp 1540 ------- 0 0.0 2.0 19 30
+ 1.227056 0 1 tcp 1540 ------- 0 0.0 2.0 20 31
r 1.2272 0 1 tcp 1540 ------- 0 0.0 2.0 18 28
+ 1.2272 1 2 tcp 1540 ------- 0 0.0 2.0 18 28
- 1.228288 0 1 tcp 1540 ------- 0 0.0 2.0 20 31
r 1.229344 2 1 ack 40 ------- 0 2.0 0.0 10 29
+ 1.229344 1 0 ack 40 ------- 0 2.0 0.0 10 29
- 1.229344 1 0 ack 40 ------- 0 2.0 0.0 10 29
r 1.231344 1 2 tcp 1540 ------- 0 0.0 2.0 11 18
+ 1.231344 2 1 ack 40 ------- 0 2.0 0.0 11 32
- 1.231344 2 1 ack 40 ------- 0 2.0 0.0 11 32
- 1.233664 1 2 tcp 1540 ------- 0 0.0 2.0 13 21
r 1.238288 0 1 tcp 1540 ------- 0 0.0 2.0 19 30
+ 1.238288 1 2 tcp 1540 ------- 0 0.0 2.0 19 30
r 1.239376 1 0 ack 40 ------- 0 2.0 0.0 10 29
+ 1.239376 0 1 tcp 1540 ------- 0 0.0 2.0 21 33
- 1.239376 0 1 tcp 1540 ------- 0 0.0 2.0 21 33
+ 1.239376 0 1 tcp 1540 ------- 0 0.0 2.0 22 34
r 1.23952 0 1 tcp 1540 ------- 0 0.0 2.0 20 31
+ 1.23952 1 2 tcp 1540 ------- 0 0.0 2.0 20 31
- 1.240608 0 1 tcp 1540 ------- 0 0.0 2.0 22 34
r 1.241664 2 1 ack 40 ------- 0 2.0 0.0 11 32
+ 1.241664 1 0 ack 40 ------- 0 2.0 0.0 11 32
- 1.241664 1 0 ack 40 ------- 0 2.0 0.0 11 32
r 1.243664 1 2 tcp 1540 ------- 0 0.0 2.0 12 19
+ 1.243664 2 1 ack 40 ------- 0 2.0 0.0 12 35
- 1.243664 2 1 ack 40 ------- 0 2.0 0.0 12 35
- 1.245984 1 2 tcp 1540 ------- 0 0.0 2.0 14 22
r 1.250608 0 1 tcp 1540 ------- 0 0.0 2.0 21 33
+ 1.250608 1 2 tcp 1540 ------- 0 0.0 2.0 21 33
r 1.251696 1 0 ack 40 ------- 0 2.0 0.0 11 32
+ 1.251696 0 1 tcp 1540 ------- 0 0.0 2.0 23 36
- 1.251696 0 1 tcp 1540 ------- 0 0.0 2.0 23 36
+ 1.251696 0 1 tcp 1540 ------- 0 0.0 2.0 24 37
r 1.25184 0 1 tcp 1540 ------- 0 0.0 2.0 22 34
+ 1.25184 1 2 tcp 1540 ------- 0 0.0 2.0 22 34
- 1.252928 0 1 tcp 1540 ------- 0 0.0 2.0 24 37
r 1.253984 2 1 ack 40 ------- 0 2.0 0.0 12 35
+ 1.253984 1 0 ack 40 ------- 0 2.0 0.0 12 35
- 1.253984 1 0 ack 40 ------- 0 2.0 0.0 12 35
r 1.255984 1 2 tcp 1540 ------- 0 0.0 2.0 13 21
+ 1.255984 2 1 ack 40 ------- 0 2.0 0.0 13 38
- 1.255984 2 1 ack 40 ------- 0 2.0 0.0 13 38
- 1.258304 1 2 tcp 1540 ------- 0 0.0 2.0 15 24
r 1.262928 0 1 tcp 1540 ------- 0 0.0 2.0 23 36
+ 1.262928 1 2 tcp 1540 ------- 0 0.0 2.0 23 36
r 1.264016 1 0 ack 40 ------- 0 2.0 0.0 12 35
+ 1.264016 0 1 tcp 1540 ------- 0 0.0 2.0 25 39
- 1.264016 0 1 tcp 1540 ------- 0 0.0 2.0 25 39
+ 1.264016 0 1 tcp 1540 ------- 0 0.0 2.0 26 40
r 1.26416 0 1 tcp 1540 ------- 0 0.0 2.0 24 37
+ 1.26416 1 2 tcp 1540 ------- 0 0.0 2.0 24 37
- 1.265248 0 1 tcp 1540 ------- 0 0.0 2.0 26 40
r 1.266304 2 1 ack 40 ------- 0 2.0 0.0 13 38
+ 1.266304 1 0 ack 40 ------- 0 2.0 0.0 13 38
- 1.266304 1 0 ack 40 ------- 0 2.0 0.0 13 38
r 1.268304 1 2 tcp 1540 ------- 0 0.0 2.0 14 22
+ 1.268304 2 1 ack 40 ------- 0 2.0 0.0 14 41
- 1.268304 2 1 ack 40 ------- 0 2.0 0.0 14 41
- 1.270624 1 2 tcp 1540 ------- 0 0.0 2.0 16 25
r 1.275248 0 1 tcp 1540 ------- 0 0.0 2.0 25 39
+ 1.275248 1 2 tcp 1540 ------- 0 0.0 2.0 25 39
r 1.276336 1 0 ack 40 ------- 0 2.0 0.0 13 38
+ 1.276336 0 1 tcp 1540 ------- 0 0.0 2.0 27 42
- 1.276336 0 1 tcp 1540 ------- 0 0.0 2.0 27 42
+ 1.276336 0 1 tcp 1540 ------- 0 0.0 2.0 28 43
r 1.27648 0 1 tcp 1540 ------- 0 0.0 2.0 26 40
+ 1.27648 1 2 tcp 1540 ------- 0 0.0 2.0 26 40
- 1.277568 0 1 tcp 1540 ------- 0 0.0 2.0 28 43
r 1.278624 2 1 ack 40 ------- 0 2.0 0.0 14 41
+ 1.278624 1 0 ack 40 ------- 0 2.0 0.0 14 41
- 1.278624 1 0 ack 40 ------- 0 2.0 0.0 14 41
r 1.280624 1 2 tcp 1540 ------- 0 0.0 2.0 15 24
+ 1.280624 2 1 ack 40 ------- 0 2.0 0.0 15 44
- 1.280624 2 1 ack 40 ------- 0 2.0 0.0 15 44
- 1.282944 1 2 tcp 1540 ------- 0 0.0 2.0 17 27
r 1.287568 0 1 tcp 1540 ------- 0 0.0 2.0 27 42
+ 1.287568 1 2 tcp 1540 ------- 0 0.0 2.0 27 42
r 1.288656 1 0 ack 40 ------- 0 2.0 0.0 14 41
+ 1.288656 0 1 tcp 1540 ------- 0 0.0 2.0 29 45
- 1.288656 0 1 tcp 1540 ------- 0 0.0 2.0 29 45
+ 1.288656 0 1 tcp 1540 ------- 0 0.0 2.0 30 46
r 1.2888 0 1 tcp 1540 ------- 0 0.0 2.0 28 43
+ 1.2888 1 2 tcp 1540 ------- 0 0.0 2.0 28 43
- 1.289888 0 1 tcp 1540 ------- 0 0.0 2.0 30 46
r 1.290944 2 1 ack 40 ------- 0 2.0 0.0 15 44
+ 1.290944 1 0 ack 40 ------- 0 2.0 0.0 15 44
- 1.290944 1 0 ack 40 ------- 0 2.0 0.0 15 44
r 1.292944 1 2 tcp 1540 ------- 0 0.0 2.0 16 25
+ 1.292944 2 1 ack 40 ------- 0 2.0 0.0 16 47
- 1.292944 2 1 ack 40 ------- 0 2.0 0.0 16 47
- 1.295264 1 2 tcp 1540 ------- 0 0.0 2.0 18 28
r 1.299888 0 1 tcp 1540 ------- 0 0.0 2.0 29 45
+ 1.299888 1 2 tcp 1540 ------- 0 0.0 2.0 29 45
r 1.300976 1 0 ack 40 ------- 0 2.0 0.0 15 44
+ 1.300976 0 1 tcp 1540 ------- 0 0.0 2.0 31 48
- 1.300976 0 1 tcp 1540 ------- 0 0.0 2.0 31 48
+ 1.300976 0 1 tcp 1540 ------- 0 0.0 2.0 32 49
r 1.30112 0 1 tcp 1540 ------- 0 0.0 2.0 30 46
+ 1.30112 1 2 tcp 1540 ------- 0 0.0 2.0 30 46
- 1.302208 0 1 tcp 1540 ------- 0 0.0 2.0 32 49
r 1.303264 2 1 ack 40 ------- 0 2.0 0.0 16 47
+ 1.303264 1 0 ack 40 ------- 0 2.0 0.0 16 47
- 1.303264 1 0 ack 40 ------- 0 2.0 0.0 16 47
r 1.305264 1 2 tcp 1540 ------- 0 0.0 2.0 17 27
+ 1.305264 2 1 ack 40 ------- 0 2.0 0.0 17 50
- 1.305264 2 1 ack 40 ------- 0 2.0 0.0 17 50
- 1.307584 1 2 tcp 1540 ------- 0 0.0 2.0 19 30
r 1.312208 0 1 tcp 1540 ------- 0 0.0 2.0 31 48
+ 1.312208 1 2 tcp 1540 ------- 0 0.0 2.0 31 48
r 1.313296 1 0 ack 40 ------- 0 2.0 0.0 16 47
+ 1.313296 0 1 tcp 1540 ------- 0 0.0 2.0 33 51
- 1.313296 0 1 tcp 1540 ------- 0 0.0 2.0 33 51
+ 1.313296 0 1 tcp 1540 ------- 0 0.0 2.0 34 52
r 1.31344 0 1 tcp 1540 ------- 0 0.0 2.0 32 49
+ 1.31344 1 2 tcp 1540 ------- 0 0.0 2.0 32 49
- 1.314528 0 1 tcp 1540 ------- 0 0.0 2.0 34 52
r 1.315584 2 1 ack 40 ------- 0 2.0 0.0 17 50
+ 1.315584 1 0 ack 40 ------- 0 2.0 0.0 17 50
- 1.315584 1 0 ack 40 ------- 0 2.0 0.0 17 50
r 1.317584 1 2 tcp 1540 ------- 0 0.0 2.0 18 28
+ 1.317584 2 1 ack 40 ------- 0 2.0 0.0 18 53
- 1.317584 2 1 ack 40 ------- 0 2.0 0.0 18 53
- 1.319904 1 2 tcp 1540 ------- 0 0.0 2.0 20 31
r 1.324528 0 1 tcp 1540 ------- 0 0.0 2.0 33 51
+ 1.324528 1 2 tcp 1540 ------- 0 0.0 2.0 33 51
r 1.325616 1 0 ack 40 ------- 0 2.0 0.0 17 50
+ 1.325616 0 1 tcp 1540 ------- 0 0.0 2.0 35 54
- 1.325616 0 1 tcp 1540 ------- 0 0.0 2.0 35 54
+ 1.325616 0 1 tcp 1540 ------- 0 0.0 2.0 36 55
r 1.32576 0 1 tcp 1540 ------- 0 0.0 2.0 34 52
+ 1.32576 1 2 tcp 1540 ------- 0 0.0 2.0 34 52
- 1.326848 0 1 tcp 1540 ------- 0 0.0 2.0 36 55
r 1.327904 2 1 ack 40 ------- 0 2.0 0.0 18 53
+ 1.327904 1 0 ack 40 ------- 0 2.0 0.0 18 53
- 1.327904 1 0 ack 40 ------- 0 2.0 0.0 18 53
r 1.329904 1 2 tcp 1540 ------- 0 0.0 2.0 19 30
+ 1.329904 2 1 ack 40 ------- 0 2.0 0.0 19 56
- 1.329904 2 1 ack 40 ------- 0 2.0 0.0 19 56
- 1.332224 1 2 tcp 1540 ------- 0 0.0 2.0 21 33
r 1.336848 0 1 tcp 1540 ------- 0 0.0 2.0 35 54
+ 1.336848 1 2 tcp 1540 ------- 0 0.0 2.0 35 54
r 1.337936 1 0 ack 40 ------- 0 2.0 0.0 18 53
+ 1.337936 0 1 tcp 1540 ------- 0 0.0 2.0 37 57
- 1.337936 0 1 tcp 1540 ------- 0 0.0 2.0 37 57
+ 1.337936 0 1 tcp 1540 ------- 0 0.0 2.0 38 58
r 1.33808 0 1 tcp 1540 ------- 0 0.0 2.0 36 55
+ 1.33808 1 2 tcp 1540 ------- 0 0.0 2.0 36 55
- 1.339168 0 1 tcp 1540 ------- 0 0.0 2.0 38 58
r 1.340224 2 1 ack 40 ------- 0 2.0 0.0 19 56
+ 1.340224 1 0 ack 40 ------- 0 2.0 0.0 19 56
- 1.340224 1 0 ack 40 ------- 0 2.0 0.0 19 56
r 1.342224 1 2 tcp 1540 ------- 0 0.0 2.0 20 31
+ 1.342224 2 1 ack 40 ------- 0 2.0 0.0 20 59
- 1.342224 2 1 ack 40 ------- 0 2.0 0.0 20 59
- 1.344544 1 2 tcp 1540 ------- 0 0.0 2.0 22 34
r 1.349168 0 1 tcp 1540 ------- 0 0.0 2.0 37 57
+ 1.349168 1 2 tcp 1540 ------- 0 0.0 2.0 37 57
r 1.350256 1 0 ack 40 ------- 0 2.0 0.0 19 56
+ 1.350256 0 1 tcp 1540 ------- 0 0.0 2.0 39 60
- 1.350256 0 1 tcp 1540 ------- 0 0.0 2.0 39 60
r 1.3504 0 1 tcp 1540 ------- 0 0.0 2.0 38 58
+ 1.3504 1 2 tcp 1540 ------- 0 0.0 2.0 38 58
r 1.352544 2 1 ack 40 ------- 0 2.0 0.0 20 59
+ 1.352544 1 0 ack 40 ------- 0 2.0 0.0 20 59
- 1.352544 1 0 ack 40 ------- 0 2.0 0.0 20 59
r 1.354544 1 2 tcp 1540 ------- 0 0.0 2.0 21 33
+ 1.354544 2 1 ack 40 ------- 0 2.0 0.0 21 61
- 1.354544 2 1 ack 40 ------- 0 2.0 0.0 21 61
- 1.356864 1 2 tcp 1540 ------- 0 0.0 2.0 23 36
r 1.361488 0 1 tcp 1540 ------- 0 0.0 2.0 39 60
+ 1.361488 1 2 tcp 1540 ------- 0 0.0 2.0 39 60
r 1.362576 1 0 ack 40 ------- 0 2.0 0.0 20 59
+ 1.362576 0 1 tcp 1540 ------- 0 0.0 2.0 40 62
- 1.362576 0 1 tcp 1540 ------- 0 0.0 2.0 40 62
r 1.364864 2 1 ack 40 ------- 0 2.0 0.0 21 61
+ 1.364864 1 0 ack 40 ------- 0 2.0 0.0 21 61
- 1.364864 1 0 ack 40 ------- 0 2.0 0.0 21 61
r 1.366864 1 2 tcp 1540 ------- 0 0.0 2.0 22 34
+ 1.366864 2 1 ack 40 ------- 0 2.0 0.0 22 63
- 1.366864 2 1 ack 40 ------- 0 2.0 0.0 22 63
- 1.369184 1 2 tcp 1540 ------- 0 0.0 2.0 24 37
r 1.373808 0 1 tcp 1540 ------- 0 0.0 2.0 40 62
+ 1.373808 1 2 tcp 1540 ------- 0 0.0 2.0 40 62
r 1.374896 1 0 ack 40 ------- 0 2.0 0.0 21 61
+ 1.374896 0 1 tcp 1540 ------- 0 0.0 2.0 41 64
- 1.374896 0 1 tcp 1540 ------- 0 0.0 2.0 41 64
r 1.377184 2 1 ack 40 ------- 0 2.0 0.0 22 63
+ 1.377184 1 0 ack 40 ------- 0 2.0 0.0 22 63
- 1.377184 1 0 ack 40 ------- 0 2.0 0.0 22 63
r 1.379184 1 2 tcp 1540 ------- 0 0.0 2.0 23 36
+ 1.379184 2 1 ack 40 ------- 0 2.0 0.0 23 65
- 1.379184 2 1 ack 40 ------- 0 2.0 0.0 23 65
- 1.381504 1 2 tcp 1540 ------- 0 0.0 2.0 25 39
r 1.386128 0 1 tcp 1540 ------- 0 0.0 2.0 41 64
+ 1.386128 1 2 tcp 1540 ------- 0 0.0 2.0 41 64
r 1.387216 1 0 ack 40 ------- 0 2.0 0.0 22 63
+ 1.387216 0 1 tcp 1540 ------- 0 0.0 2.0 42 66
- 1.387216 0 1 tcp 1540 ------- 0 0.0 2.0 42 66
r 1.389504 2 1 ack 40 ------- 0 2.0 0.0 23 65
+ 1.389504 1 0 ack 40 ------- 0 2.0 0.0 23 65
- 1.389504 1 0 ack 40 ------- 0 2.0 0.0 23 65
r 1.391504 1 2 tcp 1540 ------- 0 0.0 2.0 24 37
+ 1.391504 2 1 ack 40 ------- 0 2.0 0.0 24 67
- 1.391504 2 1 ack 40 ------- 0 2.0 0.0 24 67
- 1.393824 1 2 tcp 1540 ------- 0 0.0 2.0 26 40
r 1.398448 0 1 tcp 1540 ------- 0 0.0 2.0 42 66
+ 1.398448 1 2 tcp 1540 ------- 0 0.0 2.0 42 66
r 1.399536 1 0 ack 40 ------- 0 2.0 0.0 23 65
+ 1.399536 0 1 tcp 1540 ------- 0 0.0 2.0 43 68
- 1.399536 0 1 tcp 1540 ------- 0 0.0 2.0 43 68
r 1.401824 2 1 ack 40 ------- 0 2.0 0.0 24 67
+ 1.401824 1 0 ack 40 ------- 0 2.0 0.0 24 67
- 1.401824 1 0 ack 40 ------- 0 2.0 0.0 24 67
r 1.403824 1 2 tcp 1540 ------- 0 0.0 2.0 25 39
+ 1.403824 2 1 ack 40 ------- 0 2.0 0.0 25 69
- 1.403824 2 1 ack 40 ------- 0 2.0 0.0 25 69
- 1.406144 1 2 tcp 1540 ------- 0 0.0 2.0 27 42
r 1.410768 0 1 tcp 1540 ------- 0 0.0 2.0 43 68
+ 1.410768 1 2 tcp 1540 ------- 0 0.0 2.0 43 68
r 1.411856 1 0 ack 40 ------- 0 2.0 0.0 24 67
+ 1.411856 0 1 tcp 1540 ------- 0 0.0 2.0 44 70
- 1.411856 0 1 tcp 1540 ------- 0 0.0 2.0 44 70
r 1.414144 2 1 ack 40 ------- 0 2.0 0.0 25 69
+ 1.414144 1 0 ack 40 ------- 0 2.0 0.0 25 69
- 1.414144 1 0 ack 40 ------- 0 2.0 0.0 25 69
r 1.416144 1 2 tcp 1540 ------- 0 0.0 2.0 26 40
+ 1.416144 2 1 ack 40 ------- 0 2.0 0.0 26 71
- 1.416144 2 1 ack 40 ------- 0 2.0 0.0 26 71
- 1.418464 1 2 tcp 1540 ------- 0 0.0 2.0 28 43
r 1.423088 0 1 tcp 1540 ------- 0 0.0 2.0 44 70
+ 1.423088 1 2 tcp 1540 ------- 0 0.0 2.0 44 70
r 1.424176 1 0 ack 40 ------- 0 2.0 0.0 25 69
+ 1.424176 0 1 tcp 1540 ------- 0 0.0 2.0 45 72
- 1.424176 0 1 tcp 1540 ------- 0 0.0 2.0 45 72
r 1.426464 2 1 ack 40 ------- 0 2.0 0.0 26 71
+ 1.426464 1 0 ack 40 ------- 0 2.0 0.0 26 71
- 1.426464 1 0 ack 40 ------- 0 2.0 0.0 26 71
r 1.428464 1 2 tcp 1540 ------- 0 0.0 2.0 27 42
+ 1.428464 2 1 ack 40 ------- 0 2.0 0.0 27 73
- 1.428464 2 1 ack 40 ------- 0 2.0 0.0 27 73
- 1.430784 1 2 tcp 1540 ------- 0 0.0 2.0 29 45
r 1.435408 0 1 tcp 1540 ------- 0 0.0 2.0 45 72
+ 1.435408 1 2 tcp 1540 ------- 0 0.0 2.0 45 72
r 1.436496 1 0 ack 40 ------- 0 2.0 0.0 26 71
+ 1.436496 0 1 tcp 1540 ------- 0 0.0 2.0 46 74
- 1.436496 0 1 tcp 1540 ------- 0 0.0 2.0 46 74
r 1.438784 2 1 ack 40 ------- 0 2.0 0.0 27 73
+ 1.438784 1 0 ack 40 ------- 0 2.0 0.0 27 73
- 1.438784 1 0 ack 40 ------- 0 2.0 0.0 27 73
r 1.440784 1 2 tcp 1540 ------- 0 0.0 2.0 28 43
+ 1.440784 2 1 ack 40 ------- 0 2.0 0.0 28 75
- 1.440784 2 1 ack 40 ------- 0 2.0 0.0 28 75
- 1.443104 1 2 tcp 1540 ------- 0 0.0 2.0 30 46
r 1.447728 0 1 tcp 1540 ------- 0 0.0 2.0 46 74
+ 1.447728 1 2 tcp 1540 ------- 0 0.0 2.0 46 74
r 1.448816 1 0 ack 40 ------- 0 2.0 0.0 27 73
+ 1.448816 0 1 tcp 1540 ------- 0 0.0 2.0 47 76
- 1.448816 0 1 tcp 1540 ------- 0 0.0 2.0 47 76
r 1.451104 2 1 ack 40 ------- 0 2.0 0.0 28 75
+ 1.451104 1 0 ack 40 ------- 0 2.0 0.0 28 75
- 1.451104 1 0 ack 40 ------- 0 2.0 0.0 28 75
r 1.453104 1 2 tcp 1540 ------- 0 0.0 2.0 29 45
+ 1.453104 2 1 ack 40 ------- 0 2.0 0.0 29 77
- 1.453104 2 1 ack 40 ------- 0 2.0 0.0 29 77
- 1.455424 1 2 tcp 1540 ------- 0 0.0 2.0 31 48
r 1.460048 0 1 tcp 1540 ------- 0 0.0 2.0 47 76
+ 1.460048 1 2 tcp 1540 ------- 0 0.0 2.0 47 76
r 1.461136 1 0 ack 40 ------- 0 2.0 0.0 28 75
+ 1.461136 0 1 tcp 1540 ------- 0 0.0 2.0 48 78
- 1.461136 0 1 tcp 1540 ------- 0 0.0 2.0 48 78
r 1.463424 2 1 ack 40 ------- 0 2.0 0.0 29 77
+ 1.463424 1 0 ack 40 ------- 0 2.0 0.0 29 77
- 1.463424 1 0 ack 40 ------- 0 2.0 0.0 29 77
r 1.465424 1 2 tcp 1540 ------- 0 0.0 2.0 30 46
+ 1.465424 2 1 ack 40 ------- 0 2.0 0.0 30 79
- 1.465424 2 1 ack 40 ------- 0 2.0 0.0 30 79
- 1.467744 1 2 tcp 1540 ------- 0 0.0 2.0 32 49
r 1.472368 0 1 tcp 1540 ------- 0 0.0 2.0 48 78
+ 1.472368 1 2 tcp 1540 ------- 0 0.0 2.0 48 78
r 1.473456 1 0 ack 40 ------- 0 2.0 0.0 29 77
+ 1.473456 0 1 tcp 1540 ------- 0 0.0 2.0 49 80
- 1.473456 0 1 tcp 1540 ------- 0 0.0 2.0 49 80
r 1.475744 2 1 ack 40 ------- 0 2.0 0.0 30 79
+ 1.475744 1 0 ack 40 ------- 0 2.0 0.0 30 79
- 1.475744 1 0 ack 40 ------- 0 2.0 0.0 30 79
r 1.477744 1 2 tcp 1540 ------- 0 0.0 2.0 31 48
+ 1.477744 2 1 ack 40 ------- 0 2.0 0.0 31 81
- 1.477744 2 1 ack 40 ------- 0 2.0 0.0 31 81
- 1.480064 1 2 tcp 1540 ------- 0 0.0 2.0 33 51
r 1.484688 0 1 tcp 1540 ------- 0 0.0 2.0 49 80
+ 1.484688 1 2 tcp 1540 ------- 0 0.0 2.0 49 80
r 1.485776 1 0 ack 40 ------- 0 2.0 0.0 30 79
+ 1.485776 0 1 tcp 1540 ------- 0 0.0 2.0 50 82
- 1.485776 0 1 tcp 1540 ------- 0 0.0 2.0 50 82
r 1.488064 2 1 ack 40 ------- 0 2.0 0.0 31 81
+ 1.488064 1 0 ack 40 ------- 0 2.0 0.0 31 81
- 1.488064 1 0 ack 40 ------- 0 2.0 0.0 31 81
r 1.490064 1 2 tcp 1540 ------- 0 0.0 2.0 32 49
+ 1.490064 2 1 ack 40 ------- 0 2.0 0.0 32 83
- 1.490064 2 1 ack 40 ------- 0 2.0 0.0 32 83
- 1.492384 1 2 tcp 1540 ------- 0 0.0 2.0 34 52
r 1.497008 0 1 tcp 1540 ------- 0 0.0 2.0 50 82
+ 1.497008 1 2 tcp 1540 ------- 0 0.0 2.0 50 82
r 1.498096 1 0 ack 40 ------- 0 2.0 0.0 31 81
+ 1.498096 0 1 tcp 1540 ------- 0 0.0 2.0 51 84
- 1.498096 0 1 tcp 1540 ------- 0 0.0 2.0 51 84
r 1.500384 2 1 ack 40 ------- 0 2.0 0.0 32 83
+ 1.500384 1 0 ack 40 ------- 0 2.0 0.0 32 83
- 1.500384 1 0 ack 40 ------- 0 2.0 0.0 32 83
r 1.502384 1 2 tcp 1540 ------- 0 0.0 2.0 33 51
+ 1.502384 2 1 ack 40 ------- 0 2.0 0.0 33 85
- 1.502384 2 1 ack 40 ------- 0 2.0 0.0 33 85
- 1.504704 1 2 tcp 1540 ------- 0 0.0 2.0 35 54
r 1.509328 0 1 tcp 1540 ------- 0 0.0 2.0 51 84
+ 1.509328 1 2 tcp 1540 ------- 0 0.0 2.0 51 84
r 1.510416 1 0 ack 40 ------- 0 2.0 0.0 32 83
+ 1.510416 0 1 tcp 1540 ------- 0 0.0 2.0 52 86
- 1.510416 0 1 tcp 1540 ------- 0 0.0 2.0 52 86
r 1.512704 2 1 ack 40 ------- 0 2.0 0.0 33 85
+ 1.512704 1 0 ack 40 ------- 0 2.0 0.0 33 85
- 1.512704 1 0 ack 40 ------- 0 2.0 0.0 33 85
r 1.514704 1 2 tcp 1540 ------- 0 0.0 2.0 34 52
+ 1.514704 2 1 ack 40 ------- 0 2.0 0.0 34 87
- 1.514704 2 1 ack 40 ------- 0 2.0 0.0 34 87
- 1.517024 1 2 tcp 1540 ------- 0 0.0 2.0 36 55
r 1.521648 0 1 tcp 1540 ------- 0 0.0 2.0 52 86
+ 1.521648 1 2 tcp 1540 ------- 0 0.0 2.0 52 86
r 1.522736 1 0 ack 40 ------- 0 2.0 0.0 33 85
+ 1.522736 0 1 tcp 1540 ------- 0 0.0 2.0 53 88
- 1.522736 0 1 tcp 1540 ------- 0 0.0 2.0 53 88
r 1.525024 2 1 ack 40 ------- 0 2.0 0.0 34 87
+ 1.525024 1 0 ack 40 ------- 0 2.0 0.0 34 87
- 1.525024 1 0 ack 40 ------- 0 2.0 0.0 34 87
r 1.527024 1 2 tcp 1540 ------- 0 0.0 2.0 35 54
+ 1.527024 2 1 ack 40 ------- 0 2.0 0.0 35 89
- 1.527024 2 1 ack 40 ------- 0 2.0 0.0 35 89
- 1.529344 1 2 tcp 1540 ------- 0 0.0 2.0 37 57
r 1.533968 0 1 tcp 1540 ------- 0 0.0 2.0 53 88
+ 1.533968 1 2 tcp 1540 ------- 0 0.0 2.0 53 88
r 1.535056 1 0 ack 40 ------- 0 2.0 0.0 34 87
+ 1.535056 0 1 tcp 1540 ------- 0 0.0 2.0 54 90
- 1.535056 0 1 tcp 1540 ------- 0 0.0 2.0 54 90
r 1.537344 2 1 ack 40 ------- 0 2.0 0.0 35 89
+ 1.537344 1 0 ack 40 ------- 0 2.0 0.0 35 89
- 1.537344 1 0 ack 40 ------- 0 2.0 0.0 35 89
r 1.539344 1 2 tcp 1540 ------- 0 0.0 2.0 36 55
+ 1.539344 2 1 ack 40 ------- 0 2.0 0.0 36 91
- 1.539344 2 1 ack 40 ------- 0 2.0 0.0 36 91
- 1.541664 1 2 tcp 1540 ------- 0 0.0 2.0 38 58
r 1.546288 0 1 tcp 1540 ------- 0 0.0 2.0 54 90
+ 1.546288 1 2 tcp 1540 ------- 0 0.0 2.0 54 90
r 1.547376 1 0 ack 40 ------- 0 2.0 0.0 35 89
+ 1.547376 0 1 tcp 1540 ------- 0 0.0 2.0 55 92
- 1.547376 0 1 tcp 1540 ------- 0 0.0 2.0 55 92
r 1.549664 2 1 ack 40 ------- 0 2.0 0.0 36 91
+ 1.549664 1 0 ack 40 ------- 0 2.0 0.0 36 91
- 1.549664 1 0 ack 40 ------- 0 2.0 0.0 36 91
r 1.551664 1 2 tcp 1540 ------- 0 0.0 2.0 37 57
+ 1.551664 2 1 ack 40 ------- 0 2.0 0.0 37 93
- 1.551664 2 1 ack 40 ------- 0 2.0 0.0 37 93
- 1.553984 1 2 tcp 1540 ------- 0 0.0 2.0 39 60
r 1.558608 0 1 tcp 1540 ------- 0 0.0 2.0 55 92
+ 1.558608 1 2 tcp 1540 ------- 0 0.0 2.0 55 92
r 1.559696 1 0 ack 40 ------- 0 2.0 0.0 36 91
+ 1.559696 0 1 tcp 1540 ------- 0 0.0 2.0 56 94
- 1.559696 0 1 tcp 1540 ------- 0 0.0 2.0 56 94
r 1.561984 2 1 ack 40 ------- 0 2.0 0.0 37 93
+ 1.561984 1 0 ack 40 ------- 0 2.0 0.0 37 93
- 1.561984 1 0 ack 40 ------- 0 2.0 0.0 37 93
r 1.563984 1 2 tcp 1540 ------- 0 0.0 2.0 38 58
+ 1.563984 2 1 ack 40 ------- 0 2.0 0.0 38 95
- 1.563984 2 1 ack 40 ------- 0 2.0 0.0 38 95
- 1.566304 1 2 tcp 1540 ------- 0 0.0 2.0 40 62
r 1.570928 0 1 tcp 1540 ------- 0 0.0 2.0 56 94
+ 1.570928 1 2 tcp 1540 ------- 0 0.0 2.0 56 94
r 1.572016 1 0 ack 40 ------- 0 2.0 0.0 37 93
+ 1.572016 0 1 tcp 1540 ------- 0 0.0 2.0 57 96
- 1.572016 0 1 tcp 1540 ------- 0 0.0 2.0 57 96
r 1.574304 2 1 ack 40 ------- 0 2.0 0.0 38 95
+ 1.574304 1 0 ack 40 ------- 0 2.0 0.0 38 95
- 1.574304 1 0 ack 40 ------- 0 2.0 0.0 38 95
r 1.576304 1 2 tcp 1540 ------- 0 0.0 2.0 39 60
+ 1.576304 2 1 ack 40 ------- 0 2.0 0.0 39 97
- 1.576304 2 1 ack 40 ------- 0 2.0 0.0 39 97
- 1.578624 1 2 tcp 1540 ------- 0 0.0 2.0 41 64
r 1.583248 0 1 tcp 1540 ------- 0 0.0 2.0 57 96
+ 1.583248 1 2 tcp 1540 ------- 0 0.0 2.0 57 96
r 1.584336 1 0 ack 40 ------- 0 2.0 0.0 38 95
+ 1.584336 0 1 tcp 1540 ------- 0 0.0 2.0 58 98
- 1.584336 0 1 tcp 1540 ------- 0 0.0 2.0 58 98
r 1.586624 2 1 ack 40 ------- 0 2.0 0.0 39 97
+ 1.586624 1 0 ack 40 ------- 0 2.0 0.0 39 97
- 1.586624 1 0 ack 40 ------- 0 2.0 0.0 39 97
r 1.588624 1 2 tcp 1540 ------- 0 0.0 2.0 40 62
+ 1.588624 2 1 ack 40 ------- 0 2.0 0.0 40 99
- 1.588624 2 1 ack 40 ------- 0 2.0 0.0 40 99
- 1.590944 1 2 tcp 1540 ------- 0 0.0 2.0 42 66
r 1.595568 0 1 tcp 1540 ------- 0 0.0 2.0 58 98
+ 1.595568 1 2 tcp 1540 ------- 0 0.0 2.0 58 98
r 1.596656 1 0 ack 40 ------- 0 2.0 0.0 39 97
+ 1.596656 0 1 tcp 1540 ------- 0 0.0 2.0 59 100
- 1.596656 0 1 tcp 1540 ------- 0 0.0 2.0 59 100
r 1.598944 2 1 ack 40 ------- 0 2.0 0.0 40 99
+ 1.598944 1 0 ack 40 ------- 0 2.0 0.0 40 99
- 1.598944 1 0 ack 40 ------- 0 2.0 0.0 40 99
r 1.600944 1 2 tcp 1540 ------- 0 0.0 2.0 41 64
+ 1.600944 2 1 ack 40 ------- 0 2.0 0.0 41 101
- 1.600944 2 1 ack 40 ------- 0 2.0 0.0 41 101
- 1.603264 1 2 tcp 1540 ------- 0 0.0 2.0 43 68
r 1.607888 0 1 tcp 1540 ------- 0 0.0 2.0 59 100
+ 1.607888 1 2 tcp 1540 ------- 0 0.0 2.0 59 100
r 1.608976 1 0 ack 40 ------- 0 2.0 0.0 40 99
+ 1.608976 0 1 tcp 1540 ------- 0 0.0 2.0 60 102
- 1.608976 0 1 tcp 1540 ------- 0 0.0 2.0 60 102
r 1.611264 2 1 ack 40 ------- 0 2.0 0.0 41 101
+ 1.611264 1 0 ack 40 ------- 0 2.0 0.0 41 101
- 1.611264 1 0 ack 40 ------- 0 2.0 0.0 41 101
r 1.613264 1 2 tcp 1540 ------- 0 0.0 2.0 42 66
+ 1.613264 2 1 ack 40 ------- 0 2.0 0.0 42 103
- 1.613264 2 1 ack 40 ------- 0 2.0 0.0 42 103
- 1.615584 1 2 tcp 1540 ------- 0 0.0 2.0 44 70
r 1.620208 0 1 tcp 1540 ------- 0 0.0 2.0 60 102
+ 1.620208 1 2 tcp 1540 ------- 0 0.0 2.0 60 102
r 1.621296 1 0 ack 40 ------- 0 2.0 0.0 41 101
+ 1.621296 0 1 tcp 1540 ------- 0 0.0 2.0 61 104
- 1.621296 0 1 tcp 1540 ------- 0 0.0 2.0 61 104
r 1.623584 2 1 ack 40 ------- 0 2.0 0.0 42 103
+ 1.623584 1 0 ack 40 ------- 0 2.0 0.0 42 103
- 1.623584 1 0 ack 40 ------- 0 2.0 0.0 42 103
r 1.625584 1 2 tcp 1540 ------- 0 0.0 2.0 43 68
+ 1.625584 2 1 ack 40 ------- 0 2.0 0.0 43 105
- 1.625584 2 1 ack 40 ------- 0 2.0 0.0 43 105
- 1.627904 1 2 tcp 1540 ------- 0 0.0 2.0 45 72
r 1.632528 0 1 tcp 1540 ------- 0 0.0 2.0 61 104
+ 1.632528 1 2 tcp 1540 ------- 0 0.0 2.0 61 104
r 1.633616 1 0 ack 40 ------- 0 2.0 0.0 42 103
+ 1.633616 0 1 tcp 1540 ------- 0 0.0 2.0 62 106
- 1.633616 0 1 tcp 1540 ------- 0 0.0 2.0 62 106
r 1.635904 2 1 ack 40 ------- 0 2.0 0.0 43 105
+ 1.635904 1 0 ack 40 ------- 0 2.0 0.0 43 105
- 1.635904 1 0 ack 40 ------- 0 2.0 0.0 43 105
r 1.637904 1 2 tcp 1540 ------- 0 0.0 2.0 44 70
+ 1.637904 2 1 ack 40 ------- 0 2.0 0.0 44 107
- 1.637904 2 1 ack 40 ------- 0 2.0 0.0 44 107
- 1.640224 1 2 tcp 1540 ------- 0 0.0 2.0 46 74
r 1.644848 0 1 tcp 1540 ------- 0 0.0 2.0 62 106
+ 1.644848 1 2 tcp 1540 ------- 0 0.0 2.0 62 106
r 1.645936 1 0 ack 40 ------- 0 2.0 0.0 43 105
+ 1.645936 0 1 tcp 1540 ------- 0 0.0 2.0 63 108
- 1.645936 0 1 tcp 1540 ------- 0 0.0 2.0 63 108
r 1.648224 2 1 ack 40 ------- 0 2.0 0.0 44 107
+ 1.648224 1 0 ack 40 ------- 0 2.0 0.0 44 107
- 1.648224 1 0 ack 40 ------- 0 2.0 0.0 44 107
r 1.650224 1 2 tcp 1540 ------- 0 0.0 2.0 45 72
+ 1.650224 2 1 ack 40 ------- 0 2.0 0.0 45 109
- 1.650224 2 1 ack 40 ------- 0 2.0 0.0 45 109
- 1.652544 1 2 tcp 1540 ------- 0 0.0 2.0 47 76
r 1.657168 0 1 tcp 1540 ------- 0 0.0 2.0 63 108
+ 1.657168 1 2 tcp 1540 ------- 0 0.0 2.0 63 108
r 1.658256 1 0 ack 40 ------- 0 2.0 0.0 44 107
+ 1.658256 0 1 tcp 1540 ------- 0 0.0 2.0 64 110
- 1.658256 0 1 tcp 1540 ------- 0 0.0 2.0 64 110
r 1.660544 2 1 ack 40 ------- 0 2.0 0.0 45 109
+ 1.660544 1 0 ack 40 ------- 0 2.0 0.0 45 109
- 1.660544 1 0 ack 40 ------- 0 2.0 0.0 45 109
r 1.662544 1 2 tcp 1540 ------- 0 0.0 2.0 46 74
+ 1.662544 2 1 ack 40 ------- 0 2.0 0.0 46 111
- 1.662544 2 1 ack 40 ------- 0 2.0 0.0 46 111
- 1.664864 1 2 tcp 1540 ------- 0 0.0 2.0 48 78
r 1.669488 0 1 tcp 1540 ------- 0 0.0 2.0 64 110
+ 1.669488 1 2 tcp 1540 ------- 0 0.0 2.0 64 110
r 1.670576 1 0 ack 40 ------- 0 2.0 0.0 45 109
+ 1.670576 0 1 tcp 1540 ------- 0 0.0 2.0 65 112
- 1.670576 0 1 tcp 1540 ------- 0 0.0 2.0 65 112
r 1.672864 2 1 ack 40 ------- 0 2.0 0.0 46 111
+ 1.672864 1 0 ack 40 ------- 0 2.0 0.0 46 111
- 1.672864 1 0 ack 40 ------- 0 2.0 0.0 46 111
r 1.674864 1 2 tcp 1540 ------- 0 0.0 2.0 47 76
+ 1.674864 2 1 ack 40 ------- 0 2.0 0.0 47 113