V -t * -v 1.0a5 -a 0
A -t * -n 1 -p 0 -o 0x7fffffff -c 30 -a 1
A -t * -h 1 -m 1073741823 -s 0
n -t * -a 0 -s 0 -S UP -v circle -c black -i black
n -t * -a 1 -s 1 -S UP -v circle -c black -i black
n -t * -a 2 -s 2 -S UP -v circle -c black -i black
n -t * -a 3 -s 3 -S UP -v circle -c black -i black
l -t * -s 0 -d 2 -S UP -r 500000 -D 0.01 -c black -o right-down
l -t * -s 1 -d 2 -S UP -r 1000000 -D 0.01 -c black -o right-up
l -t * -s 2 -d 3 -S UP -r 500000 -D 0.01 -c black -o right
+ -t 1 -s 0 -d 2 -p tcp -e 40 -c 0 -i 0 -a 0 -x {0.0 3.0 0 ------- null}
- -t 1 -s 0 -d 2 -p tcp -e 40 -c 0 -i 0 -a 0 -x {0.0 3.0 0 ------- null}
h -t 1 -s 0 -d 2 -p tcp -e 40 -c 0 -i 0 -a 0 -x {0.0 3.0 -1 ------- null}
r -t 1.01064 -s 0 -d 2 -p tcp -e 40 -c 0 -i 0 -a 0 -x {0.0 3.0 0 ------- null}
+ -t 1.01064 -s 2 -d 3 -p tcp -e 40 -c 0 -i 0 -a 0 -x {0.0 3.0 0 ------- null}
- -t 1.01064 -s 2 -d 3 -p tcp -e 40 -c 0 -i 0 -a 0 -x {0.0 3.0 0 ------- null}
h -t 1.01064 -s 2 -d 3 -p tcp -e 40 -c 0 -i 0 -a 0 -x {0.0 3.0 -1 ------- null}
r -t 1.02128 -s 2 -d 3 -p tcp -e 40 -c 0 -i 0 -a 0 -x {0.0 3.0 0 ------- null}
+ -t 1.02128 -s 3 -d 2 -p ack -e 40 -c 0 -i 1 -a 0 -x {3.0 0.0 0 ------- null}
- -t 1.02128 -s 3 -d 2 -p ack -e 40 -c 0 -i 1 -a 0 -x {3.0 0.0 0 ------- null}
h -t 1.02128 -s 3 -d 2 -p ack -e 40 -c 0 -i 1 -a 0 -x {3.0 0.0 -1 ------- null}
r -t 1.03192 -s 3 -d 2 -p ack -e 40 -c 0 -i 1 -a 0 -x {3.0 0.0 0 ------- null}
+ -t 1.03192 -s 2 -d 0 -p ack -e 40 -c 0 -i 1 -a 0 -x {3.0 0.0 0 ------- null}
- -t 1.03192 -s 2 -d 0 -p ack -e 40 -c 0 -i 1 -a 0 -x {3.0 0.0 0 ------- null}
h -t 1.03192 -s 2 -d 0 -p ack -e 40 -c 0 -i 1 -a 0 -x {3.0 0.0 -1 ------- null}
r -t 1.04256 -s 2 -d 0 -p ack -e 40 -c 0 -i 1 -a 0 -x {3.0 0.0 0 ------- null}
+ -t 1.04256 -s 0 -d 2 -p tcp -e 1540 -c 0 -i 2 -a 0 -x {0.0 3.0 1 ------- null}
- -t 1.04256 -s 0 -d 2 -p tcp -e 1540 -c 0 -i 2 -a 0 -x {0.0 3.0 1 ------- null}
h -t 1.04256 -s 0 -d 2 -p tcp -e 1540 -c 0 -i 2 -a 0 -x {0.0 3.0 -1 ------- null}
+ -t 1.04256 -s 0 -d 2 -p tcp -e 1540 -c 0 -i 3 -a 0 -x {0.0 3.0 2 ------- null}
- -t 1.0672 -s 0 -d 2 -p tcp -e 1540 -c 0 -i 3 -a 0 -x {0.0 3.0 2 ------- null}
h -t 1.0672 -s 0 -d 2 -p tcp -e 1540 -c 0 -i 3 -a 0 -x {0.0 3.0 -1 ------- null}
r -t 1.0772 -s 0 -d 2 -p tcp -e 1540 -c 0 -i 2 -a 0 -x {0.0 3.0 1 ------- null}
+ -t 1.0772 -s 2 -d 3 -p tcp -e 1540 -c 0 -i 2 -a 0 -x {0.0 3.0 1 ------- null}
- -t 1.0772 -s 2 -d 3 -p tcp -e 1540 -c 0 -i 2 -a 0 -x {0.0 3.0 1 ------- null}
h -t 1.0772 -s 2 -d 3 -p tcp -e 1540 -c 0 -i 2 -a 0 -x {0.0 3.0 -1 ------- null}
r -t 1.10184 -s 0 -d 2 -p tcp -e 1540 -c 0 -i 3 -a 0 -x {0.0 3.0 2 ------- null}
+ -t 1.10184 -s 2 -d 3 -p tcp -e 1540 -c 0 -i 3 -a 0 -x {0.0 3.0 2 ------- null}
- -t 1.10184 -s 2 -d 3 -p tcp -e 1540 -c 0 -i 3 -a 0 -x {0.0 3.0 2 ------- null}
h -t 1.10184 -s 2 -d 3 -p tcp -e 1540 -c 0 -i 3 -a 0 -x {0.0 3.0 -1 ------- null}
r -t 1.11184 -s 2 -d 3 -p tcp -e 1540 -c 0 -i 2 -a 0 -x {0.0 3.0 1 ------- null}
+ -t 1.11184 -s 3 -d 2 -p ack -e 40 -c 0 -i 4 -a 0 -x {3.0 0.0 1 ------- null}
- -t 1.11184 -s 3 -d 2 -p ack -e 40 -c 0 -i 4 -a 0 -x {3.0 0.0 1 ------- null}
h -t 1.11184 -s 3 -d 2 -p ack -e 40 -c 0 -i 4 -a 0 -x {3.0 0.0 -1 ------- null}
r -t 1.12248 -s 3 -d 2 -p ack -e 40 -c 0 -i 4 -a 0 -x {3.0 0.0 1 ------- null}
+ -t 1.12248 -s 2 -d 0 -p ack -e 40 -c 0 -i 4 -a 0 -x {3.0 0.0 1 ------- null}
- -t 1.12248 -s 2 -d 0 -p ack -e 40 -c 0 -i 4 -a 0 -x {3.0 0.0 1 ------- null}
h -t 1.12248 -s 2 -d 0 -p ack -e 40 -c 0 -i 4 -a 0 -x {3.0 0.0 -1 ------- null}
r -t 1.13312 -s 2 -d 0 -p ack -e 40 -c 0 -i 4 -a 0 -x {3.0 0.0 1 ------- null}
+ -t 1.13312 -s 0 -d 2 -p tcp -e 1540 -c 0 -i 5 -a 0 -x {0.0 3.0 3 ------- null}
- -t 1.13312 -s 0 -d 2 -p tcp -e 1540 -c 0 -i 5 -a 0 -x {0.0 3.0 3 ------- null}
h -t 1.13312 -s 0 -d 2 -p tcp -e 1540 -c 0 -i 5 -a 0 -x {0.0 3.0 -1 ------- null}
+ -t 1.13312 -s 0 -d 2 -p tcp -e 1540 -c 0 -i 6 -a 0 -x {0.0 3.0 4 ------- null}
r -t 1.13648 -s 2 -d 3 -p tcp -e 1540 -c 0 -i 3 -a 0 -x {0.0 3.0 2 ------- null}
+ -t 1.13648 -s 3 -d 2 -p ack -e 40 -c 0 -i 7 -a 0 -x {3.0 0.0 2 ------- null}
- -t 1.13648 -s 3 -d 2 -p ack -e 40 -c 0 -i 7 -a 0 -x {3.0 0.0 2 ------- null}
h -t 1.13648 -s 3 -d 2 -p ack -e 40 -c 0 -i 7 -a 0 -x {3.0 0.0 -1 ------- null}
r -t 1.14712 -s 3 -d 2 -p ack -e 40 -c 0 -i 7 -a 0 -x {3.0 0.0 2 ------- null}
+ -t 1.14712 -s 2 -d 0 -p ack -e 40 -c 0 -i 7 -a 0 -x {3.0 0.0 2 ------- null}
- -t 1.14712 -s 2 -d 0 -p ack -e 40 -c 0 -i 7 -a 0 -x {3.0 0.0 2 ------- null}
h -t 1.14712 -s 2 -d 0 -p ack -e 40 -c 0 -i 7 -a 0 -x {3.0 0.0 -1 ------- null}
- -t 1.15776 -s 0 -d 2 -p tcp -e 1540 -c 0 -i 6 -a 0 -x {0.0 3.0 4 ------- null}
h -t 1.15776 -s 0 -d 2 -p tcp -e 1540 -c 0 -i 6 -a 0 -x {0.0 3.0 -1 ------- null}
r -t 1.15776 -s 2 -d 0 -p ack -e 40 -c 0 -i 7 -a 0 -x {3.0 0.0 2 ------- null}
+ -t 1.15776 -s 0 -d 2 -p tcp -e 1540 -c 0 -i 8 -a 0 -x {0.0 3.0 5 ------- null}
+ -t 1.15776 -s 0 -d 2 -p tcp -e 1540 -c 0 -i 9 -a 0 -x {0.0 3.0 6 ------- null}
r -t 1.16776 -s 0 -d 2 -p tcp -e 1540 -c 0 -i 5 -a 0 -x {0.0 3.0 3 ------- null}
+ -t 1.16776 -s 2 -d 3 -p tcp -e 1540 -c 0 -i 5 -a 0 -x {0.0 3.0 3 ------- null}
- -t 1.16776 -s 2 -d 3 -p tcp -e 1540 -c 0 -i 5 -a 0 -x {0.0 3.0 3 ------- null}
h -t 1.16776 -s 2 -d 3 -p tcp -e 1540 -c 0 -i 5 -a 0 -x {0.0 3.0 -1 ------- null}
- -t 1.1824 -s 0 -d 2 -p tcp -e 1540 -c 0 -i 8 -a 0 -x {0.0 3.0 5 ------- null}
h -t 1.1824 -s 0 -d 2 -p tcp -e 1540 -c 0 -i 8 -a 0 -x {0.0 3.0 -1 ------- null}
r -t 1.1924 -s 0 -d 2 -p tcp -e 1540 -c 0 -i 6 -a 0 -x {0.0 3.0 4 ------- null}
+ -t 1.1924 -s 2 -d 3 -p tcp -e 1540 -c 0 -i 6 -a 0 -x {0.0 3.0 4 ------- null}
- -t 1.1924 -s 2 -d 3 -p tcp -e 1540 -c 0 -i 6 -a 0 -x {0.0 3.0 4 ------- null}
h -t 1.1924 -s 2 -d 3 -p tcp -e 1540 -c 0 -i 6 -a 0 -x {0.0 3.0 -1 ------- null}
r -t 1.2024 -s 2 -d 3 -p tcp -e 1540 -c 0 -i 5 -a 0 -x {0.0 3.0 3 ------- null}
+ -t 1.2024 -s 3 -d 2 -p ack -e 40 -c 0 -i 10 -a 0 -x {3.0 0.0 3 ------- null}
- -t 1.2024 -s 3 -d 2 -p ack -e 40 -c 0 -i 10 -a 0 -x {3.0 0.0 3 ------- null}
h -t 1.2024 -s 3 -d 2 -p ack -e 40 -c 0 -i 10 -a 0 -x {3.0 0.0 -1 ------- null}
- -t 1.20704 -s 0 -d 2 -p tcp -e 1540 -c 0 -i 9 -a 0 -x {0.0 3.0 6 ------- null}
h -t 1.20704 -s 0 -d 2 -p tcp -e 1540 -c 0 -i 9 -a 0 -x {0.0 3.0 -1 ------- null}
r -t 1.21304 -s 3 -d 2 -p ack -e 40 -c 0 -i 10 -a 0 -x {3.0 0.0 3 ------- null}
+ -t 1.21304 -s 2 -d 0 -p ack -e 40 -c 0 -i 10 -a 0 -x {3.0 0.0 3 ------- null}
- -t 1.21304 -s 2 -d 0 -p ack -e 40 -c 0 -i 10 -a 0 -x {3.0 0.0 3 ------- null}
h -t 1.21304 -s 2 -d 0 -p ack -e 40 -c 0 -i 10 -a 0 -x {3.0 0.0 -1 ------- null}
r -t 1.21704 -s 0 -d 2 -p tcp -e 1540 -c 0 -i 8 -a 0 -x {0.0 3.0 5 ------- null}
+ -t 1.21704 -s 2 -d 3 -p tcp -e 1540 -c 0 -i 8 -a 0 -x {0.0 3.0 5 ------- null}
- -t 1.21704 -s 2 -d 3 -p tcp -e 1540 -c 0 -i 8 -a 0 -x {0.0 3.0 5 ------- null}
h -t 1.21704 -s 2 -d 3 -p tcp -e 1540 -c 0 -i 8 -a 0 -x {0.0 3.0 -1 ------- null}
r -t 1.22368 -s 2 -d 0 -p ack -e 40 -c 0 -i 10 -a 0 -x {3.0 0.0 3 ------- null}
+ -t 1.22368 -s 0 -d 2 -p tcp -e 1540 -c 0 -i 11 -a 0 -x {0.0 3.0 7 ------- null}
+ -t 1.22368 -s 0 -d 2 -p tcp -e 1540 -c 0 -i 12 -a 0 -x {0.0 3.0 8 ------- null}
r -t 1.22704 -s 2 -d 3 -p tcp -e 1540 -c 0 -i 6 -a 0 -x {0.0 3.0 4 ------- null}
+ -t 1.22704 -s 3 -d 2 -p ack -e 40 -c 0 -i 13 -a 0 -x {3.0 0.0 4 ------- null}
- -t 1.22704 -s 3 -d 2 -p ack -e 40 -c 0 -i 13 -a 0 -x {3.0 0.0 4 ------- null}
h -t 1.22704 -s 3 -d 2 -p ack -e 40 -c 0 -i 13 -a 0 -x {3.0 0.0 -1 ------- null}
- -t 1.23168 -s 0 -d 2 -p tcp -e 1540 -c 0 -i 11 -a 0 -x {0.0 3.0 7 ------- null}
h -t 1.23168 -s 0 -d 2 -p tcp -e 1540 -c 0 -i 11 -a 0 -x {0.0 3.0 -1 ------- null}
r -t 1.23768 -s 3 -d 2 -p ack -e 40 -c 0 -i 13 -a 0 -x {3.0 0.0 4 ------- null}
+ -t 1.23768 -s 2 -d 0 -p ack -e 40 -c 0 -i 13 -a 0 -x {3.0 0.0 4 ------- null}
- -t 1.23768 -s 2 -d 0 -p ack -e 40 -c 0 -i 13 -a 0 -x {3.0 0.0 4 ------- null}
h -t 1.23768 -s 2 -d 0 -p ack -e 40 -c 0 -i 13 -a 0 -x {3.0 0.0 -1 ------- null}
r -t 1.24168 -s 0 -d 2 -p tcp -e 1540 -c 0 -i 9 -a 0 -x {0.0 3.0 6 ------- null}
+ -t 1.24168 -s 2 -d 3 -p tcp -e 1540 -c 0 -i 9 -a 0 -x {0.0 3.0 6 ------- null}
- -t 1.24168 -s 2 -d 3 -p tcp -e 1540 -c 0 -i 9 -a 0 -x {0.0 3.0 6 ------- null}
h -t 1.24168 -s 2 -d 3 -p tcp -e 1540 -c 0 -i 9 -a 0 -x {0.0 3.0 -1 ------- null}
r -t 1.24832 -s 2 -d 0 -p ack -e 40 -c 0 -i 13 -a 0 -x {3.0 0.0 4 ------- null}
+ -t 1.24832 -s 0 -d 2 -p tcp -e 1540 -c 0 -i 14 -a 0 -x {0.0 3.0 9 ------- null}
+ -t 1.24832 -s 0 -d 2 -p tcp -e 1540 -c 0 -i 15 -a 0 -x {0.0 3.0 10 ------- null}
r -t 1.25168 -s 2 -d 3 -p tcp -e 1540 -c 0 -i 8 -a 0 -x {0.0 3.0 5 ------- null}
+ -t 1.25168 -s 3 -d 2 -p ack -e 40 -c 0 -i 16 -a 0 -x {3.0 0.0 5 ------- null}
- -t 1.25168 -s 3 -d 2 -p ack -e 40 -c 0 -i 16 -a 0 -x {3.0 0.0 5 ------- null}
h -t 1.25168 -s 3 -d 2 -p ack -e 40 -c 0 -i 16 -a 0 -x {3.0 0.0 -1 ------- null}
- -t 1.25632 -s 0 -d 2 -p tcp -e 1540 -c 0 -i 12 -a 0 -x {0.0 3.0 8 ------- null}
h -t 1.25632 -s 0 -d 2 -p tcp -e 1540 -c 0 -i 12 -a 0 -x {0.0 3.0 -1 ------- null}
r -t 1.26232 -s 3 -d 2 -p ack -e 40 -c 0 -i 16 -a 0 -x {3.0 0.0 5 ------- null}
+ -t 1.26232 -s 2 -d 0 -p ack -e 40 -c 0 -i 16 -a 0 -x {3.0 0.0 5 ------- null}
- -t 1.26232 -s 2 -d 0 -p ack -e 40 -c 0 -i 16 -a 0 -x {3.0 0.0 5 ------- null}
h -t 1.26232 -s 2 -d 0 -p ack -e 40 -c 0 -i 16 -a 0 -x {3.0 0.0 -1 ------- null}
r -t 1.26632 -s 0 -d 2 -p tcp -e 1540 -c 0 -i 11 -a 0 -x {0.0 3.0 7 ------- null}
+ -t 1.26632 -s 2 -d 3 -p tcp -e 1540 -c 0 -i 11 -a 0 -x {0.0 3.0 7 ------- null}
- -t 1.26632 -s 2 -d 3 -p tcp -e 1540 -c 0 -i 11 -a 0 -x {0.0 3.0 7 ------- null}
h -t 1.26632 -s 2 -d 3 -p tcp -e 1540 -c 0 -i 11 -a 0 -x {0.0 3.0 -1 ------- null}
r -t 1.27296 -s 2 -d 0 -p ack -e 40 -c 0 -i 16 -a 0 -x {3.0 0.0 5 ------- null}
+ -t 1.27296 -s 0 -d 2 -p tcp -e 1540 -c 0 -i 17 -a 0 -x {0.0 3.0 11 ------- null}
+ -t 1.27296 -s 0 -d 2 -p tcp -e 1540 -c 0 -i 18 -a 0 -x {0.0 3.0 12 ------- null}
r -t 1.27632 -s 2 -d 3 -p tcp -e 1540 -c 0 -i 9 -a 0 -x {0.0 3.0 6 ------- null}
+ -t 1.27632 -s 3 -d 2 -p ack -e 40 -c 0 -i 19 -a 0 -x {3.0 0.0 6 ------- null}
- -t 1.27632 -s 3 -d 2 -p ack -e 40 -c 0 -i 19 -a 0 -x {3.0 0.0 6 ------- null}
h -t 1.27632 -s 3 -d 2 -p ack -e 40 -c 0 -i 19 -a 0 -x {3.0 0.0 -1 ------- null}
- -t 1.28096 -s 0 -d 2 -p tcp -e 1540 -c 0 -i 14 -a 0 -x {0.0 3.0 9 ------- null}
h -t 1.28096 -s 0 -d 2 -p tcp -e 1540 -c 0 -i 14 -a 0 -x {0.0 3.0 -1 ------- null}
r -t 1.28696 -s 3 -d 2 -p ack -e 40 -c 0 -i 19 -a 0 -x {3.0 0.0 6 ------- null}
+ -t 1.28696 -s 2 -d 0 -p ack -e 40 -c 0 -i 19 -a 0 -x {3.0 0.0 6 ------- null}
- -t 1.28696 -s 2 -d 0 -p ack -e 40 -c 0 -i 19 -a 0 -x {3.0 0.0 6 ------- null}
h -t 1.28696 -s 2 -d 0 -p ack -e 40 -c 0 -i 19 -a 0 -x {3.0 0.0 -1 ------- null}
r -t 1.29096 -s 0 -d 2 -p tcp -e 1540 -c 0 -i 12 -a 0 -x {0.0 3.0 8 ------- null}
+ -t 1.29096 -s 2 -d 3 -p tcp -e 1540 -c 0 -i 12 -a 0 -x {0.0 3.0 8 ------- null}
- -t 1.29096 -s 2 -d 3 -p tcp -e 1540 -c 0 -i 12 -a 0 -x {0.0 3.0 8 ------- null}
h -t 1.29096 -s 2 -d 3 -p tcp -e 1540 -c 0 -i 12 -a 0 -x {0.0 3.0 -1 ------- null}
r -t 1.2976 -s 2 -d 0 -p ack -e 40 -c 0 -i 19 -a 0 -x {3.0 0.0 6 ------- null}
+ -t 1.2976 -s 0 -d 2 -p tcp -e 1540 -c 0 -i 20 -a 0 -x {0.0 3.0 13 ------- null}
+ -t 1.2976 -s 0 -d 2 -p tcp -e 1540 -c 0 -i 21 -a 0 -x {0.0 3.0 14 ------- null}
r -t 1.30096 -s 2 -d 3 -p tcp -e 1540 -c 0 -i 11 -a 0 -x {0.0 3.0 7 ------- null}
+ -t 1.30096 -s 3 -d 2 -p ack -e 40 -c 0 -i 22 -a 0 -x {3.0 0.0 7 ------- null}
- -t 1.30096 -s 3 -d 2 -p ack -e 40 -c 0 -i 22 -a 0 -x {3.0 0.0 7 ------- null}
h -t 1.30096 -s 3 -d 2 -p ack -e 40 -c 0 -i 22 -a 0 -x {3.0 0.0 -1 ------- null}
- -t 1.3056 -s 0 -d 2 -p tcp -e 1540 -c 0 -i 15 -a 0 -x {0.0 3.0 10 ------- null}
h -t 1.3056 -s 0 -d 2 -p tcp -e 1540 -c 0 -i 15 -a 0 -x {0.0 3.0 -1 ------- null}
r -t 1.3116 -s 3 -d 2 -p ack -e 40 -c 0 -i 22 -a 0 -x {3.0 0.0 7 ------- null}
+ -t 1.3116 -s 2 -d 0 -p ack -e 40 -c 0 -i 22 -a 0 -x {3.0 0.0 7 ------- null}
- -t 1.3116 -s 2 -d 0 -p ack -e 40 -c 0 -i 22 -a 0 -x {3.0 0.0 7 ------- null}
h -t 1.3116 -s 2 -d 0 -p ack -e 40 -c 0 -i 22 -a 0 -x {3.0 0.0 -1 ------- null}
r -t 1.3156 -s 0 -d 2 -p tcp -e 1540 -c 0 -i 14 -a 0 -x {0.0 3.0 9 ------- null}
+ -t 1.3156 -s 2 -d 3 -p tcp -e 1540 -c 0 -i 14 -a 0 -x {0.0 3.0 9 ------- null}
- -t 1.3156 -s 2 -d 3 -p tcp -e 1540 -c 0 -i 14 -a 0 -x {0.0 3.0 9 ------- null}
h -t 1.3156 -s 2 -d 3 -p tcp -e 1540 -c 0 -i 14 -a 0 -x {0.0 3.0 -1 ------- null}
r -t 1.32224 -s 2 -d 0 -p ack -e 40 -c 0 -i 22 -a 0 -x {3.0 0.0 7 ------- null}
+ -t 1.32224 -s 0 -d 2 -p tcp -e 1540 -c 0 -i 23 -a 0 -x {0.0 3.0 15 ------- null}
+ -t 1.32224 -s 0 -d 2 -p tcp -e 1540 -c 0 -i 24 -a 0 -x {0.0 3.0 16 ------- null}
r -t 1.3256 -s 2 -d 3 -p tcp -e 1540 -c 0 -i 12 -a 0 -x {0.0 3.0 8 ------- null}
+ -t 1.3256 -s 3 -d 2 -p ack -e 40 -c 0 -i 25 -a 0 -x {3.0 0.0 8 ------- null}
- -t 1.3256 -s 3 -d 2 -p ack -e 40 -c 0 -i 25 -a 0 -x {3.0 0.0 8 ------- null}
h -t 1.3256 -s 3 -d 2 -p ack -e 40 -c 0 -i 25 -a 0 -x {3.0 0.0 -1 ------- null}
- -t 1.33024 -s 0 -d 2 -p tcp -e 1540 -c 0 -i 17 -a 0 -x {0.0 3.0 11 ------- null}
h -t 1.33024 -s 0 -d 2 -p tcp -e 1540 -c 0 -i 17 -a 0 -x {0.0 3.0 -1 ------- null}
r -t 1.33624 -s 3 -d 2 -p ack -e 40 -c 0 -i 25 -a 0 -x {3.0 0.0 8 ------- null}
+ -t 1.33624 -s 2 -d 0 -p ack -e 40 -c 0 -i 25 -a 0 -x {3.0 0.0 8 ------- null}
- -t 1.33624 -s 2 -d 0 -p ack -e 40 -c 0 -i 25 -a 0 -x {3.0 0.0 8 ------- null}
h -t 1.33624 -s 2 -d 0 -p ack -e 40 -c 0 -i 25 -a 0 -x {3.0 0.0 -1 ------- null}
r -t 1.34024 -s 0 -d 2 -p tcp -e 1540 -c 0 -i 15 -a 0 -x {0.0 3.0 10 ------- null}
+ -t 1.34024 -s 2 -d 3 -p tcp -e 1540 -c 0 -i 15 -a 0 -x {0.0 3.0 10 ------- null}
- -t 1.34024 -s 2 -d 3 -p tcp -e 1540 -c 0 -i 15 -a 0 -x {0.0 3.0 10 ------- null}
h -t 1.34024 -s 2 -d 3 -p tcp -e 1540 -c 0 -i 15 -a 0 -x {0.0 3.0 -1 ------- null}
r -t 1.34688 -s 2 -d 0 -p ack -e 40 -c 0 -i 25 -a 0 -x {3.0 0.0 8 ------- null}
+ -t 1.34688 -s 0 -d 2 -p tcp -e 1540 -c 0 -i 26 -a 0 -x {0.0 3.0 17 ------- null}
+ -t 1.34688 -s 0 -d 2 -p tcp -e 1540 -c 0 -i 27 -a 0 -x {0.0 3.0 18 ------- null}
r -t 1.35024 -s 2 -d 3 -p tcp -e 1540 -c 0 -i 14 -a 0 -x {0.0 3.0 9 ------- null}
+ -t 1.35024 -s 3 -d 2 -p ack -e 40 -c 0 -i 28 -a 0 -x {3.0 0.0 9 ------- null}
- -t 1.35024 -s 3 -d 2 -p ack -e 40 -c 0 -i 28 -a 0 -x {3.0 0.0 9 ------- null}
h -t 1.35024 -s 3 -d 2 -p ack -e 40 -c 0 -i 28 -a 0 -x {3.0 0.0 -1 ------- null}
- -t 1.35488 -s 0 -d 2 -p tcp -e 1540 -c 0 -i 18 -a 0 -x {0.0 3.0 12 ------- null}
h -t 1.35488 -s 0 -d 2 -p tcp -e 1540 -c 0 -i 18 -a 0 -x {0.0 3.0 -1 ------- null}
r -t 1.36088 -s 3 -d 2 -p ack -e 40 -c 0 -i 28 -a 0 -x {3.0 0.0 9 ------- null}
+ -t 1.36088 -s 2 -d 0 -p ack -e 40 -c 0 -i 28 -a 0 -x {3.0 0.0 9 ------- null}
- -t 1.36088 -s 2 -d 0 -p ack -e 40 -c 0 -i 28 -a 0 -x {3.0 0.0 9 ------- null}
h -t 1.36088 -s 2 -d 0 -p ack -e 40 -c 0 -i 28 -a 0 -x {3.0 0.0 -1 ------- null}
r -t 1.36488 -s 0 -d 2 -p tcp -e 1540 -c 0 -i 17 -a 0 -x {0.0 3.0 11 ------- null}
+ -t 1.36488 -s 2 -d 3 -p tcp -e 1540 -c 0 -i 17 -a 0 -x {0.0 3.0 11 ------- null}
- -t 1.36488 -s 2 -d 3 -p tcp -e 1540 -c 0 -i 17 -a 0 -x {0.0 3.0 11 ------- null}
h -t 1.36488 -s 2 -d 3 -p tcp -e 1540 -c 0 -i 17 -a 0 -x {0.0 3.0 -1 ------- null}
r -t 1.37152 -s 2 -d 0 -p ack -e 40 -c 0 -i 28 -a 0 -x {3.0 0.0 9 ------- null}
+ -t 1.37152 -s 0 -d 2 -p tcp -e 1540 -c 0 -i 29 -a 0 -x {0.0 3.0 19 ------- null}
+ -t 1.37152 -s 0 -d 2 -p tcp -e 1540 -c 0 -i 30 -a 0 -x {0.0 3.0 20 ------- null}
r -t 1.37488 -s 2 -d 3 -p tcp -e 1540 -c 0 -i 15 -a 0 -x {0.0 3.0 10 ------- null}
+ -t 1.37488 -s 3 -d 2 -p ack -e 40 -c 0 -i 31 -a 0 -x {3.0 0.0 10 ------- null}
- -t 1.37488 -s 3 -d 2 -p ack -e 40 -c 0 -i 31 -a 0 -x {3.0 0.0 10 ------- null}
h -t 1.37488 -s 3 -d 2 -p ack -e 40 -c 0 -i 31 -a 0 -x {3.0 0.0 -1 ------- null}
- -t 1.37952 -s 0 -d 2 -p tcp -e 1540 -c 0 -i 20 -a 0 -x {0.0 3.0 13 ------- null}
h -t 1.37952 -s 0 -d 2 -p tcp -e 1540 -c 0 -i 20 -a 0 -x {0.0 3.0 -1 ------- null}
r -t 1.38552 -s 3 -d 2 -p ack -e 40 -c 0 -i 31 -a 0 -x {3.0 0.0 10 ------- null}
+ -t 1.38552 -s 2 -d 0 -p ack -e 40 -c 0 -i 31 -a 0 -x {3.0 0.0 10 ------- null}
- -t 1.38552 -s 2 -d 0 -p ack -e 40 -c 0 -i 31 -a 0 -x {3.0 0.0 10 ------- null}
h -t 1.38552 -s 2 -d 0 -p ack -e 40 -c 0 -i 31 -a 0 -x {3.0 0.0 -1 ------- null}
r -t 1.38952 -s 0 -d 2 -p tcp -e 1540 -c 0 -i 18 -a 0 -x {0.0 3.0 12 ------- null}
+ -t 1.38952 -s 2 -d 3 -p tcp -e 1540 -c 0 -i 18 -a 0 -x {0.0 3.0 12 ------- null}
- -t 1.38952 -s 2 -d 3 -p tcp -e 1540 -c 0 -i 18 -a 0 -x {0.0 3.0 12 ------- null}
h -t 1.38952 -s 2 -d 3 -p tcp -e 1540 -c 0 -i 18 -a 0 -x {0.0 3.0 -1 ------- null}
r -t 1.39616 -s 2 -d 0 -p ack -e 40 -c 0 -i 31 -a 0 -x {3.0 0.0 10 ------- null}
+ -t 1.39616 -s 0 -d 2 -p tcp -e 1540 -c 0 -i 32 -a 0 -x {0.0 3.0 21 ------- null}
+ -t 1.39616 -s 0 -d 2 -p tcp -e 1540 -c 0 -i 33 -a 0 -x {0.0 3.0 22 ------- null}
r -t 1.39952 -s 2 -d 3 -p tcp -e 1540 -c 0 -i 17 -a 0 -x {0.0 3.0 11 ------- null}
+ -t 1.39952 -s 3 -d 2 -p ack -e 40 -c 0 -i 34 -a 0 -x {3.0 0.0 11 ------- null}
- -t 1.39952 -s 3 -d 2 -p ack -e 40 -c 0 -i 34 -a 0 -x {3.0 0.0 11 ------- null}
h -t 1.39952 -s 3 -d 2 -p ack -e 40 -c 0 -i 34 -a 0 -x {3.0 0.0 -1 ------- null}
- -t 1.40416 -s 0 -d 2 -p tcp -e 1540 -c 0 -i 21 -a 0 -x {0.0 3.0 14 ------- null}
h -t 1.40416 -s 0 -d 2 -p tcp -e 1540 -c 0 -i 21 -a 0 -x {0.0 3.0 -1 ------- null}
r -t 1.41016 -s 3 -d 2 -p ack -e 40 -c 0 -i 34 -a 0 -x {3.0 0.0 11 ------- null}
+ -t 1.41016 -s 2 -d 0 -p ack -e 40 -c 0 -i 34 -a 0 -x {3.0 0.0 11 ------- null}
- -t 1.41016 -s 2 -d 0 -p ack -e 40 -c 0 -i 34 -a 0 -x {3.0 0.0 11 ------- null}
h -t 1.41016 -s 2 -d 0 -p ack -e 40 -c 0 -i 34 -a 0 -x {3.0 0.0 -1 ------- null}
r -t 1.41416 -s 0 -d 2 -p tcp -e 1540 -c 0 -i 20 -a 0 -x {0.0 3.0 13 ------- null}
+ -t 1.41416 -s 2 -d 3 -p tcp -e 1540 -c 0 -i 20 -a 0 -x {0.0 3.0 13 ------- null}
- -t 1.41416 -s 2 -d 3 -p tcp -e 1540 -c 0 -i 20 -a 0 -x {0.0 3.0 13 ------- null}
h -t 1.41416 -s 2 -d 3 -p tcp -e 1540 -c 0 -i 20 -a 0 -x {0.0 3.0 -1 ------- null}
r -t 1.4208 -s 2 -d 0 -p ack -e 40 -c 0 -i 34 -a 0 -x {3.0 0.0 11 ------- null}
+ -t 1.4208 -s 0 -d 2 -p tcp -e 1540 -c 0 -i 35 -a 0 -x {0.0 3.0 23 ------- null}
+ -t 1.4208 -s 0 -d 2 -p tcp -e 1540 -c 0 -i 36 -a 0 -x {0.0 3.0 24 ------- null}
r -t 1.42416 -s 2 -d 3 -p tcp -e 1540 -c 0 -i 18 -a 0 -x {0.0 3.0 12 ------- null}
+ -t 1.42416 -s 3 -d 2 -p ack -e 40 -c 0 -i 37 -a 0 -x {3.0 0.0 12 ------- null}
- -t 1.42416 -s 3 -d 2 -p ack -e 40 -c 0 -i 37 -a 0 -x {3.0 0.0 12 ------- null}
h -t 1.42416 -s 3 -d 2 -p ack -e 40 -c 0 -i 37 -a 0 -x {3.0 0.0 -1 ------- null}
- -t 1.4288 -s 0 -d 2 -p tcp -e 1540 -c 0 -i 23 -a 0 -x {0.0 3.0 15 ------- null}
h -t 1.4288 -s 0 -d 2 -p tcp -e 1540 -c 0 -i 23 -a 0 -x {0.0 3.0 -1 ------- null}
r -t 1.4348 -s 3 -d 2 -p ack -e 40 -c 0 -i 37 -a 0 -x {3.0 0.0 12 ------- null}
+ -t 1.4348 -s 2 -d 0 -p ack -e 40 -c 0 -i 37 -a 0 -x {3.0 0.0 12 ------- null}
- -t 1.4348 -s 2 -d 0 -p ack -e 40 -c 0 -i 37 -a 0 -x {3.0 0.0 12 ------- null}
h -t 1.4348 -s 2 -d 0 -p ack -e 40 -c 0 -i 37 -a 0 -x {3.0 0.0 -1 ------- null}
r -t 1.4388 -s 0 -d 2 -p tcp -e 1540 -c 0 -i 21 -a 0 -x {0.0 3.0 14 ------- null}
+ -t 1.4388 -s 2 -d 3 -p tcp -e 1540 -c 0 -i 21 -a 0 -x {0.0 3.0 14 ------- null}
- -t 1.4388 -s 2 -d 3 -p tcp -e 1540 -c 0 -i 21 -a 0 -x {0.0 3.0 14 ------- null}
h -t 1.4388 -s 2 -d 3 -p tcp -e 1540 -c 0 -i 21 -a 0 -x {0.0 3.0 -1 ------- null}
r -t 1.44544 -s 2 -d 0 -p ack -e 40 -c 0 -i 37 -a 0 -x {3.0 0.0 12 ------- null}
+ -t 1.44544 -s 0 -d 2 -p tcp -e 1540 -c 0 -i 38 -a 0 -x {0.0 3.0 25 ------- null}
+ -t 1.44544 -s 0 -d 2 -p tcp -e 1540 -c 0 -i 39 -a 0 -x {0.0 3.0 26 ------- null}
r -t 1.4488 -s 2 -d 3 -p tcp -e 1540 -c 0 -i 20 -a 0 -x {0.0 3.0 13 ------- null}
+ -t 1.4488 -s 3 -d 2 -p ack -e 40 -c 0 -i 40 -a 0 -x {3.0 0.0 13 ------- null}
- -t 1.4488 -s 3 -d 2 -p ack -e 40 -c 0 -i 40 -a 0 -x {3.0 0.0 13 ------- null}
h -t 1.4488 -s 3 -d 2 -p ack -e 40 -c 0 -i 40 -a 0 -x {3.0 0.0 -1 ------- null}
- -t 1.45344 -s 0 -d 2 -p tcp -e 1540 -c 0 -i 24 -a 0 -x {0.0 3.0 16 ------- null}
h -t 1.45344 -s 0 -d 2 -p tcp -e 1540 -c 0 -i 24 -a 0 -x {0.0 3.0 -1 ------- null}
r -t 1.45944 -s 3 -d 2 -p ack -e 40 -c 0 -i 40 -a 0 -x {3.0 0.0 13 ------- null}
+ -t 1.45944 -s 2 -d 0 -p ack -e 40 -c 0 -i 40 -a 0 -x {3.0 0.0 13 ------- null}
- -t 1.45944 -s 2 -d 0 -p ack -e 40 -c 0 -i 40 -a 0 -x {3.0 0.0 13 ------- null}
h -t 1.45944 -s 2 -d 0 -p ack -e 40 -c 0 -i 40 -a 0 -x {3.0 0.0 -1 ------- null}
r -t 1.46344 -s 0 -d 2 -p tcp -e 1540 -c 0 -i 23 -a 0 -x {0.0 3.0 15 ------- null}
+ -t 1.46344 -s 2 -d 3 -p tcp -e 1540 -c 0 -i 23 -a 0 -x {0.0 3.0 15 ------- null}
- -t 1.46344 -s 2 -d 3 -p tcp -e 1540 -c 0 -i 23 -a 0 -x {0.0 3.0 15 ------- null}
h -t 1.46344 -s 2 -d 3 -p tcp -e 1540 -c 0 -i 23 -a 0 -x {0.0 3.0 -1 ------- null}
r -t 1.47008 -s 2 -d 0 -p ack -e 40 -c 0 -i 40 -a 0 -x {3.0 0.0 13 ------- null}
+ -t 1.47008 -s 0 -d 2 -p tcp -e 1540 -c 0 -i 41 -a 0 -x {0.0 3.0 27 ------- null}
+ -t 1.47008 -s 0 -d 2 -p tcp -e 1540 -c 0 -i 42 -a 0 -x {0.0 3.0 28 ------- null}
r -t 1.47344 -s 2 -d 3 -p tcp -e 1540 -c 0 -i 21 -a 0 -x {0.0 3.0 14 ------- null}
+ -t 1.47344 -s 3 -d 2 -p ack -e 40 -c 0 -i 43 -a 0 -x {3.0 0.0 14 ------- null}
- -t 1.47344 -s 3 -d 2 -p ack -e 40 -c 0 -i 43 -a 0 -x {3.0 0.0 14 ------- null}
h -t 1.47344 -s 3 -d 2 -p ack -e 40 -c 0 -i 43 -a 0 -x {3.0 0.0 -1 ------- null}
- -t 1.47808 -s 0 -d 2 -p tcp -e 1540 -c 0 -i 26 -a 0 -x {0.0 3.0 17 ------- null}
h -t 1.47808 -s 0 -d 2 -p tcp -e 1540 -c 0 -i 26 -a 0 -x {0.0 3.0 -1 ------- null}
r -t 1.48408 -s 3 -d 2 -p ack -e 40 -c 0 -i 43 -a 0 -x {3.0 0.0 14 ------- null}
+ -t 1.48408 -s 2 -d 0 -p ack -e 40 -c 0 -i 43 -a 0 -x {3.0 0.0 14 ------- null}
- -t 1.48408 -s 2 -d 0 -p ack -e 40 -c 0 -i 43 -a 0 -x {3.0 0.0 14 ------- null}
h -t 1.48408 -s 2 -d 0 -p ack -e 40 -c 0 -i 43 -a 0 -x {3.0 0.0 -1 ------- null}
r -t 1.48808 -s 0 -d 2 -p tcp -e 1540 -c 0 -i 24 -a 0 -x {0.0 3.0 16 ------- null}
+ -t 1.48808 -s 2 -d 3 -p tcp -e 1540 -c 0 -i 24 -a 0 -x {0.0 3.0 16 ------- null}
- -t 1.48808 -s 2 -d 3 -p tcp -e 1540 -c 0 -i 24 -a 0 -x {0.0 3.0 16 ------- null}
h -t 1.48808 -s 2 -d 3 -p tcp -e 1540 -c 0 -i 24 -a 0 -x {0.0 3.0 -1 ------- null}
r -t 1.49472 -s 2 -d 0 -p ack -e 40 -c 0 -i 43 -a 0 -x {3.0 0.0 14 ------- null}
+ -t 1.49472 -s 0 -d 2 -p tcp -e 1540 -c 0 -i 44 -a 0 -x {0.0 3.0 29 ------- null}
+ -t 1.49472 -s 0 -d 2 -p tcp -e 1540 -c 0 -i 45 -a 0 -x {0.0 3.0 30 ------- null}
r -t 1.49808 -s 2 -d 3 -p tcp -e 1540 -c 0 -i 23 -a 0 -x {0.0 3.0 15 ------- null}
+ -t 1.49808 -s 3 -d 2 -p ack -e 40 -c 0 -i 46 -a 0 -x {3.0 0.0 15 ------- null}
- -t 1.49808 -s 3 -d 2 -p ack -e 40 -c 0 -i 46 -a 0 -x {3.0 0.0 15 ------- null}
h -t 1.49808 -s 3 -d 2 -p ack -e 40 -c 0 -i 46 -a 0 -x {3.0 0.0 -1 ------- null}
- -t 1.50272 -s 0 -d 2 -p tcp -e 1540 -c 0 -i 27 -a 0 -x {0.0 3.0 18 ------- null}
h -t 1.50272 -s 0 -d 2 -p tcp -e 1540 -c 0 -i 27 -a 0 -x {0.0 3.0 -1 ------- null}
r -t 1.50872 -s 3 -d 2 -p ack -e 40 -c 0 -i 46 -a 0 -x {3.0 0.0 15 ------- null}
+ -t 1.50872 -s 2 -d 0 -p ack -e 40 -c 0 -i 46 -a 0 -x {3.0 0.0 15 ------- null}
- -t 1.50872 -s 2 -d 0 -p ack -e 40 -c 0 -i 46 -a 0 -x {3.0 0.0 15 ------- null}
h -t 1.50872 -s 2 -d 0 -p ack -e 40 -c 0 -i 46 -a 0 -x {3.0 0.0 -1 ------- null}
r -t 1.51272 -s 0 -d 2 -p tcp -e 1540 -c 0 -i 26 -a 0 -x {0.0 3.0 17 ------- null}
+ -t 1.51272 -s 2 -d 3 -p tcp -e 1540 -c 0 -i 26 -a 0 -x {0.0 3.0 17 ------- null}
- -t 1.51272 -s 2 -d 3 -p tcp -e 1540 -c 0 -i 26 -a 0 -x {0.0 3.0 17 ------- null}
h -t 1.51272 -s 2 -d 3 -p tcp -e 1540 -c 0 -i 26 -a 0 -x {0.0 3.0 -1 ------- null}
r -t 1.51936 -s 2 -d 0 -p ack -e 40 -c 0 -i 46 -a 0 -x {3.0 0.0 15 ------- null}
+ -t 1.51936 -s 0 -d 2 -p tcp -e 1540 -c 0 -i 47 -a 0 -x {0.0 3.0 31 ------- null}
+ -t 1.51936 -s 0 -d 2 -p tcp -e 1540 -c 0 -i 48 -a 0 -x {0.0 3.0 32 ------- null}
r -t 1.52272 -s 2 -d 3 -p tcp -e 1540 -c 0 -i 24 -a 0 -x {0.0 3.0 16 ------- null}
+ -t 1.52272 -s 3 -d 2 -p ack -e 40 -c 0 -i 49 -a 0 -x {3.0 0.0 16 ------- null}
- -t 1.52272 -s 3 -d 2 -p ack -e 40 -c 0 -i 49 -a 0 -x {3.0 0.0 16 ------- null}
h -t 1.52272 -s 3 -d 2 -p ack -e 40 -c 0 -i 49 -a 0 -x {3.0 0.0 -1 ------- null}
- -t 1.52736 -s 0 -d 2 -p tcp -e 1540 -c 0 -i 29 -a 0 -x {0.0 3.0 19 ------- null}
h -t 1.52736 -s 0 -d 2 -p tcp -e 1540 -c 0 -i 29 -a 0 -x {0.0 3.0 -1 ------- null}
r -t 1.53336 -s 3 -d 2 -p ack -e 40 -c 0 -i 49 -a 0 -x {3.0 0.0 16 ------- null}
+ -t 1.53336 -s 2 -d 0 -p ack -e 40 -c 0 -i 49 -a 0 -x {3.0 0.0 16 ------- null}
- -t 1.53336 -s 2 -d 0 -p ack -e 40 -c 0 -i 49 -a 0 -x {3.0 0.0 16 ------- null}
h -t 1.53336 -s 2 -d 0 -p ack -e 40 -c 0 -i 49 -a 0 -x {3.0 0.0 -1 ------- null}
r -t 1.53736 -s 0 -d 2 -p tcp -e 1540 -c 0 -i 27 -a 0 -x {0.0 3.0 18 ------- null}
+ -t 1.53736 -s 2 -d 3 -p tcp -e 1540 -c 0 -i 27 -a 0 -x {0.0 3.0 18 ------- null}
- -t 1.53736 -s 2 -d 3 -p tcp -e 1540 -c 0 -i 27 -a 0 -x {0.0 3.0 18 ------- null}
h -t 1.53736 -s 2 -d 3 -p tcp -e 1540 -c 0 -i 27 -a 0 -x {0.0 3.0 -1 ------- null}
r -t 1.544 -s 2 -d 0 -p ack -e 40 -c 0 -i 49 -a 0 -x {3.0 0.0 16 ------- null}
+ -t 1.544 -s 0 -d 2 -p tcp -e 1540 -c 0 -i 50 -a 0 -x {0.0 3.0 33 ------- null}
+ -t 1.544 -s 0 -d 2 -p tcp -e 1540 -c 0 -i 51 -a 0 -x {0.0 3.0 34 ------- null}
r -t 1.54736 -s 2 -d 3 -p tcp -e 1540 -c 0 -i 26 -a 0 -x {0.0 3.0 17 ------- null}
+ -t 1.54736 -s 3 -d 2 -p ack -e 40 -c 0 -i 52 -a 0 -x {3.0 0.0 17 ------- null}
- -t 1.54736 -s 3 -d 2 -p ack -e 40 -c 0 -i 52 -a 0 -x {3.0 0.0 17 ------- null}
h -t 1.54736 -s 3 -d 2 -p ack -e 40 -c 0 -i 52 -a 0 -x {3.0 0.0 -1 ------- null}
- -t 1.552 -s 0 -d 2 -p tcp -e 1540 -c 0 -i 30 -a 0 -x {0.0 3.0 20 ------- null}
h -t 1.552 -s 0 -d 2 -p tcp -e 1540 -c 0 -i 30 -a 0 -x {0.0 3.0 -1 ------- null}
r -t 1.558 -s 3 -d 2 -p ack -e 40 -c 0 -i 52 -a 0 -x {3.0 0.0 17 ------- null}
+ -t 1.558 -s 2 -d 0 -p ack -e 40 -c 0 -i 52 -a 0 -x {3.0 0.0 17 ------- null}
- -t 1.558 -s 2 -d 0 -p ack -e 40 -c 0 -i 52 -a 0 -x {3.0 0.0 17 ------- null}
h -t 1.558 -s 2 -d 0 -p ack -e 40 -c 0 -i 52 -a 0 -x {3.0 0.0 -1 ------- null}
r -t 1.562 -s 0 -d 2 -p tcp -e 1540 -c 0 -i 29 -a 0 -x {0.0 3.0 19 ------- null}
+ -t 1.562 -s 2 -d 3 -p tcp -e 1540 -c 0 -i 29 -a 0 -x {0.0 3.0 19 ------- null}
- -t 1.562 -s 2 -d 3 -p tcp -e 1540 -c 0 -i 29 -a 0 -x {0.0 3.0 19 ------- null}
h -t 1.562 -s 2 -d 3 -p tcp -e 1540 -c 0 -i 29 -a 0 -x {0.0 3.0 -1 ------- null}
r -t 1.56864 -s 2 -d 0 -p ack -e 40 -c 0 -i 52 -a 0 -x {3.0 0.0 17 ------- null}
+ -t 1.56864 -s 0 -d 2 -p tcp -e 1540 -c 0 -i 53 -a 0 -x {0.0 3.0 35 ------- null}
+ -t 1.56864 -s 0 -d 2 -p tcp -e 1540 -c 0 -i 54 -a 0 -x {0.0 3.0 36 ------- null}
r -t 1.572 -s 2 -d 3 -p tcp -e 1540 -c 0 -i 27 -a 0 -x {0.0 3.0 18 ------- null}
+ -t 1.572 -s 3 -d 2 -p ack -e 40 -c 0 -i 55 -a 0 -x {3.0 0.0 18 ------- null}
- -t 1.572 -s 3 -d 2 -p ack -e 40 -c 0 -i 55 -a 0 -x {3.0 0.0 18 ------- null}
h -t 1.572 -s 3 -d 2 -p ack -e 40 -c 0 -i 55 -a 0 -x {3.0 0.0 -1 ------- null}
- -t 1.57664 -s 0 -d 2 -p tcp -e 1540 -c 0 -i 32 -a 0 -x {0.0 3.0 21 ------- null}
h -t 1.57664 -s 0 -d 2 -p tcp -e 1540 -c 0 -i 32 -a 0 -x {0.0 3.0 -1 ------- null}
r -t 1.58264 -s 3 -d 2 -p ack -e 40 -c 0 -i 55 -a 0 -x {3.0 0.0 18 ------- null}
+ -t 1.58264 -s 2 -d 0 -p ack -e 40 -c 0 -i 55 -a 0 -x {3.0 0.0 18 ------- null}
- -t 1.58264 -s 2 -d 0 -p ack -e 40 -c 0 -i 55 -a 0 -x {3.0 0.0 18 ------- null}
h -t 1.58264 -s 2 -d 0 -p ack -e 40 -c 0 -i 55 -a 0 -x {3.0 0.0 -1 ------- null}
r -t 1.58664 -s 0 -d 2 -p tcp -e 1540 -c 0 -i 30 -a 0 -x {0.0 3.0 20 ------- null}
+ -t 1.58664 -s 2 -d 3 -p tcp -e 1540 -c 0 -i 30 -a 0 -x {0.0 3.0 20 ------- null}
- -t 1.58664 -s 2 -d 3 -p tcp -e 1540 -c 0 -i 30 -a 0 -x {0.0 3.0 20 ------- null}
h -t 1.58664 -s 2 -d 3 -p tcp -e 1540 -c 0 -i 30 -a 0 -x {0.0 3.0 -1 ------- null}
r -t 1.59328 -s 2 -d 0 -p ack -e 40 -c 0 -i 55 -a 0 -x {3.0 0.0 18 ------- null}
+ -t 1.59328 -s 0 -d 2 -p tcp -e 1540 -c 0 -i 56 -a 0 -x {0.0 3.0 37 ------- null}
+ -t 1.59328 -s 0 -d 2 -p tcp -e 1540 -c 0 -i 57 -a 0 -x {0.0 3.0 38 ------- null}
r -t 1.59664 -s 2 -d 3 -p tcp -e 1540 -c 0 -i 29 -a 0 -x {0.0 3.0 19 ------- null}
+ -t 1.59664 -s 3 -d 2 -p ack -e 40 -c 0 -i 58 -a 0 -x {3.0 0.0 19 ------- null}
- -t 1.59664 -s 3 -d 2 -p ack -e 40 -c 0 -i 58 -a 0 -x {3.0 0.0 19 ------- null}
h -t 1.59664 -s 3 -d 2 -p ack -e 40 -c 0 -i 58 -a 0 -x {3.0 0.0 -1 ------- null}
- -t 1.60128 -s 0 -d 2 -p tcp -e 1540 -c 0 -i 33 -a 0 -x {0.0 3.0 22 ------- null}
h -t 1.60128 -s 0 -d 2 -p tcp -e 1540 -c 0 -i 33 -a 0 -x {0.0 3.0 -1 ------- null}
r -t 1.60728 -s 3 -d 2 -p ack -e 40 -c 0 -i 58 -a 0 -x {3.0 0.0 19 ------- null}
+ -t 1.60728 -s 2 -d 0 -p ack -e 40 -c 0 -i 58 -a 0 -x {3.0 0.0 19 ------- null}
- -t 1.60728 -s 2 -d 0 -p ack -e 40 -c 0 -i 58 -a 0 -x {3.0 0.0 19 ------- null}
h -t 1.60728 -s 2 -d 0 -p ack -e 40 -c 0 -i 58 -a 0 -x {3.0 0.0 -1 ------- null}
r -t 1.61128 -s 0 -d 2 -p tcp -e 1540 -c 0 -i 32 -a 0 -x {0.0 3.0 21 ------- null}
+ -t 1.61128 -s 2 -d 3 -p tcp -e 1540 -c 0 -i 32 -a 0 -x {0.0 3.0 21 ------- null}
- -t 1.61128 -s 2 -d 3 -p tcp -e 1540 -c 0 -i 32 -a 0 -x {0.0 3.0 21 ------- null}
h -t 1.61128 -s 2 -d 3 -p tcp -e 1540 -c 0 -i 32 -a 0 -x {0.0 3.0 -1 ------- null}
r -t 1.61792 -s 2 -d 0 -p ack -e 40 -c 0 -i 58 -a 0 -x {3.0 0.0 19 ------- null}
+ -t 1.61792 -s 0 -d 2 -p tcp -e 1540 -c 0 -i 59 -a 0 -x {0.0 3.0 39 ------- null}
r -t 1.62128 -s 2 -d 3 -p tcp -e 1540 -c 0 -i 30 -a 0 -x {0.0 3.0 20 ------- null}
+ -t 1.62128 -s 3 -d 2 -p ack -e 40 -c 0 -i 60 -a 0 -x {3.0 0.0 20 ------- null}
- -t 1.62128 -s 3 -d 2 -p ack -e 40 -c 0 -i 60 -a 0 -x {3.0 0.0 20 ------- null}
h -t 1.62128 -s 3 -d 2 -p ack -e 40 -c 0 -i 60 -a 0 -x {3.0 0.0 -1 ------- null}
- -t 1.62592 -s 0 -d 2 -p tcp -e 1540 -c 0 -i 35 -a 0 -x {0.0 3.0 23 ------- null}
h -t 1.62592 -s 0 -d 2 -p tcp -e 1540 -c 0 -i 35 -a 0 -x {0.0 3.0 -1 ------- null}
r -t 1.63192 -s 3 -d 2 -p ack -e 40 -c 0 -i 60 -a 0 -x {3.0 0.0 20 ------- null}
+ -t 1.63192 -s 2 -d 0 -p ack -e 40 -c 0 -i 60 -a 0 -x {3.0 0.0 20 ------- null}
- -t 1.63192 -s 2 -d 0 -p ack -e 40 -c 0 -i 60 -a 0 -x {3.0 0.0 20 ------- null}