+ 1 0 2 tcp 40 ------- 0 0.0 3.0 0 0
- 1 0 2 tcp 40 ------- 0 0.0 3.0 0 0
r 1.01064 0 2 tcp 40 ------- 0 0.0 3.0 0 0
+ 1.01064 2 3 tcp 40 ------- 0 0.0 3.0 0 0
- 1.01064 2 3 tcp 40 ------- 0 0.0 3.0 0 0
r 1.02128 2 3 tcp 40 ------- 0 0.0 3.0 0 0
+ 1.02128 3 2 ack 40 ------- 0 3.0 0.0 0 1
- 1.02128 3 2 ack 40 ------- 0 3.0 0.0 0 1
r 1.03192 3 2 ack 40 ------- 0 3.0 0.0 0 1
+ 1.03192 2 0 ack 40 ------- 0 3.0 0.0 0 1
- 1.03192 2 0 ack 40 ------- 0 3.0 0.0 0 1
r 1.04256 2 0 ack 40 ------- 0 3.0 0.0 0 1
+ 1.04256 0 2 tcp 1540 ------- 0 0.0 3.0 1 2
- 1.04256 0 2 tcp 1540 ------- 0 0.0 3.0 1 2
+ 1.04256 0 2 tcp 1540 ------- 0 0.0 3.0 2 3
- 1.0672 0 2 tcp 1540 ------- 0 0.0 3.0 2 3
r 1.0772 0 2 tcp 1540 ------- 0 0.0 3.0 1 2
+ 1.0772 2 3 tcp 1540 ------- 0 0.0 3.0 1 2
- 1.0772 2 3 tcp 1540 ------- 0 0.0 3.0 1 2
r 1.10184 0 2 tcp 1540 ------- 0 0.0 3.0 2 3
+ 1.10184 2 3 tcp 1540 ------- 0 0.0 3.0 2 3
- 1.10184 2 3 tcp 1540 ------- 0 0.0 3.0 2 3
r 1.11184 2 3 tcp 1540 ------- 0 0.0 3.0 1 2
+ 1.11184 3 2 ack 40 ------- 0 3.0 0.0 1 4
- 1.11184 3 2 ack 40 ------- 0 3.0 0.0 1 4
r 1.12248 3 2 ack 40 ------- 0 3.0 0.0 1 4
+ 1.12248 2 0 ack 40 ------- 0 3.0 0.0 1 4
- 1.12248 2 0 ack 40 ------- 0 3.0 0.0 1 4
r 1.13312 2 0 ack 40 ------- 0 3.0 0.0 1 4
+ 1.13312 0 2 tcp 1540 ------- 0 0.0 3.0 3 5
- 1.13312 0 2 tcp 1540 ------- 0 0.0 3.0 3 5
+ 1.13312 0 2 tcp 1540 ------- 0 0.0 3.0 4 6
r 1.13648 2 3 tcp 1540 ------- 0 0.0 3.0 2 3
+ 1.13648 3 2 ack 40 ------- 0 3.0 0.0 2 7
- 1.13648 3 2 ack 40 ------- 0 3.0 0.0 2 7
r 1.14712 3 2 ack 40 ------- 0 3.0 0.0 2 7
+ 1.14712 2 0 ack 40 ------- 0 3.0 0.0 2 7
- 1.14712 2 0 ack 40 ------- 0 3.0 0.0 2 7
- 1.15776 0 2 tcp 1540 ------- 0 0.0 3.0 4 6
r 1.15776 2 0 ack 40 ------- 0 3.0 0.0 2 7
+ 1.15776 0 2 tcp 1540 ------- 0 0.0 3.0 5 8
+ 1.15776 0 2 tcp 1540 ------- 0 0.0 3.0 6 9
r 1.16776 0 2 tcp 1540 ------- 0 0.0 3.0 3 5
+ 1.16776 2 3 tcp 1540 ------- 0 0.0 3.0 3 5
- 1.16776 2 3 tcp 1540 ------- 0 0.0 3.0 3 5
- 1.1824 0 2 tcp 1540 ------- 0 0.0 3.0 5 8
r 1.1924 0 2 tcp 1540 ------- 0 0.0 3.0 4 6
+ 1.1924 2 3 tcp 1540 ------- 0 0.0 3.0 4 6
- 1.1924 2 3 tcp 1540 ------- 0 0.0 3.0 4 6
r 1.2024 2 3 tcp 1540 ------- 0 0.0 3.0 3 5
+ 1.2024 3 2 ack 40 ------- 0 3.0 0.0 3 10
- 1.2024 3 2 ack 40 ------- 0 3.0 0.0 3 10
- 1.20704 0 2 tcp 1540 ------- 0 0.0 3.0 6 9
r 1.21304 3 2 ack 40 ------- 0 3.0 0.0 3 10
+ 1.21304 2 0 ack 40 ------- 0 3.0 0.0 3 10
- 1.21304 2 0 ack 40 ------- 0 3.0 0.0 3 10
r 1.21704 0 2 tcp 1540 ------- 0 0.0 3.0 5 8
+ 1.21704 2 3 tcp 1540 ------- 0 0.0 3.0 5 8
- 1.21704 2 3 tcp 1540 ------- 0 0.0 3.0 5 8
r 1.22368 2 0 ack 40 ------- 0 3.0 0.0 3 10
+ 1.22368 0 2 tcp 1540 ------- 0 0.0 3.0 7 11
+ 1.22368 0 2 tcp 1540 ------- 0 0.0 3.0 8 12
r 1.22704 2 3 tcp 1540 ------- 0 0.0 3.0 4 6
+ 1.22704 3 2 ack 40 ------- 0 3.0 0.0 4 13
- 1.22704 3 2 ack 40 ------- 0 3.0 0.0 4 13
- 1.23168 0 2 tcp 1540 ------- 0 0.0 3.0 7 11
r 1.23768 3 2 ack 40 ------- 0 3.0 0.0 4 13
+ 1.23768 2 0 ack 40 ------- 0 3.0 0.0 4 13
- 1.23768 2 0 ack 40 ------- 0 3.0 0.0 4 13
r 1.24168 0 2 tcp 1540 ------- 0 0.0 3.0 6 9
+ 1.24168 2 3 tcp 1540 ------- 0 0.0 3.0 6 9
- 1.24168 2 3 tcp 1540 ------- 0 0.0 3.0 6 9
r 1.24832 2 0 ack 40 ------- 0 3.0 0.0 4 13
+ 1.24832 0 2 tcp 1540 ------- 0 0.0 3.0 9 14
+ 1.24832 0 2 tcp 1540 ------- 0 0.0 3.0 10 15
r 1.25168 2 3 tcp 1540 ------- 0 0.0 3.0 5 8
+ 1.25168 3 2 ack 40 ------- 0 3.0 0.0 5 16
- 1.25168 3 2 ack 40 ------- 0 3.0 0.0 5 16
- 1.25632 0 2 tcp 1540 ------- 0 0.0 3.0 8 12
r 1.26232 3 2 ack 40 ------- 0 3.0 0.0 5 16
+ 1.26232 2 0 ack 40 ------- 0 3.0 0.0 5 16
- 1.26232 2 0 ack 40 ------- 0 3.0 0.0 5 16
r 1.26632 0 2 tcp 1540 ------- 0 0.0 3.0 7 11
+ 1.26632 2 3 tcp 1540 ------- 0 0.0 3.0 7 11
- 1.26632 2 3 tcp 1540 ------- 0 0.0 3.0 7 11
r 1.27296 2 0 ack 40 ------- 0 3.0 0.0 5 16
+ 1.27296 0 2 tcp 1540 ------- 0 0.0 3.0 11 17
+ 1.27296 0 2 tcp 1540 ------- 0 0.0 3.0 12 18
r 1.27632 2 3 tcp 1540 ------- 0 0.0 3.0 6 9
+ 1.27632 3 2 ack 40 ------- 0 3.0 0.0 6 19
- 1.27632 3 2 ack 40 ------- 0 3.0 0.0 6 19
- 1.28096 0 2 tcp 1540 ------- 0 0.0 3.0 9 14
r 1.28696 3 2 ack 40 ------- 0 3.0 0.0 6 19
+ 1.28696 2 0 ack 40 ------- 0 3.0 0.0 6 19
- 1.28696 2 0 ack 40 ------- 0 3.0 0.0 6 19
r 1.29096 0 2 tcp 1540 ------- 0 0.0 3.0 8 12
+ 1.29096 2 3 tcp 1540 ------- 0 0.0 3.0 8 12
- 1.29096 2 3 tcp 1540 ------- 0 0.0 3.0 8 12
r 1.2976 2 0 ack 40 ------- 0 3.0 0.0 6 19
+ 1.2976 0 2 tcp 1540 ------- 0 0.0 3.0 13 20
+ 1.2976 0 2 tcp 1540 ------- 0 0.0 3.0 14 21
r 1.30096 2 3 tcp 1540 ------- 0 0.0 3.0 7 11
+ 1.30096 3 2 ack 40 ------- 0 3.0 0.0 7 22
- 1.30096 3 2 ack 40 ------- 0 3.0 0.0 7 22
- 1.3056 0 2 tcp 1540 ------- 0 0.0 3.0 10 15
r 1.3116 3 2 ack 40 ------- 0 3.0 0.0 7 22
+ 1.3116 2 0 ack 40 ------- 0 3.0 0.0 7 22
- 1.3116 2 0 ack 40 ------- 0 3.0 0.0 7 22
r 1.3156 0 2 tcp 1540 ------- 0 0.0 3.0 9 14
+ 1.3156 2 3 tcp 1540 ------- 0 0.0 3.0 9 14
- 1.3156 2 3 tcp 1540 ------- 0 0.0 3.0 9 14
r 1.32224 2 0 ack 40 ------- 0 3.0 0.0 7 22
+ 1.32224 0 2 tcp 1540 ------- 0 0.0 3.0 15 23
+ 1.32224 0 2 tcp 1540 ------- 0 0.0 3.0 16 24
r 1.3256 2 3 tcp 1540 ------- 0 0.0 3.0 8 12
+ 1.3256 3 2 ack 40 ------- 0 3.0 0.0 8 25
- 1.3256 3 2 ack 40 ------- 0 3.0 0.0 8 25
- 1.33024 0 2 tcp 1540 ------- 0 0.0 3.0 11 17
r 1.33624 3 2 ack 40 ------- 0 3.0 0.0 8 25
+ 1.33624 2 0 ack 40 ------- 0 3.0 0.0 8 25
- 1.33624 2 0 ack 40 ------- 0 3.0 0.0 8 25
r 1.34024 0 2 tcp 1540 ------- 0 0.0 3.0 10 15
+ 1.34024 2 3 tcp 1540 ------- 0 0.0 3.0 10 15
- 1.34024 2 3 tcp 1540 ------- 0 0.0 3.0 10 15
r 1.34688 2 0 ack 40 ------- 0 3.0 0.0 8 25
+ 1.34688 0 2 tcp 1540 ------- 0 0.0 3.0 17 26
+ 1.34688 0 2 tcp 1540 ------- 0 0.0 3.0 18 27
r 1.35024 2 3 tcp 1540 ------- 0 0.0 3.0 9 14
+ 1.35024 3 2 ack 40 ------- 0 3.0 0.0 9 28
- 1.35024 3 2 ack 40 ------- 0 3.0 0.0 9 28
- 1.35488 0 2 tcp 1540 ------- 0 0.0 3.0 12 18
r 1.36088 3 2 ack 40 ------- 0 3.0 0.0 9 28
+ 1.36088 2 0 ack 40 ------- 0 3.0 0.0 9 28
- 1.36088 2 0 ack 40 ------- 0 3.0 0.0 9 28
r 1.36488 0 2 tcp 1540 ------- 0 0.0 3.0 11 17
+ 1.36488 2 3 tcp 1540 ------- 0 0.0 3.0 11 17
- 1.36488 2 3 tcp 1540 ------- 0 0.0 3.0 11 17
r 1.37152 2 0 ack 40 ------- 0 3.0 0.0 9 28
+ 1.37152 0 2 tcp 1540 ------- 0 0.0 3.0 19 29
+ 1.37152 0 2 tcp 1540 ------- 0 0.0 3.0 20 30
r 1.37488 2 3 tcp 1540 ------- 0 0.0 3.0 10 15
+ 1.37488 3 2 ack 40 ------- 0 3.0 0.0 10 31
- 1.37488 3 2 ack 40 ------- 0 3.0 0.0 10 31
- 1.37952 0 2 tcp 1540 ------- 0 0.0 3.0 13 20
r 1.38552 3 2 ack 40 ------- 0 3.0 0.0 10 31
+ 1.38552 2 0 ack 40 ------- 0 3.0 0.0 10 31
- 1.38552 2 0 ack 40 ------- 0 3.0 0.0 10 31
r 1.38952 0 2 tcp 1540 ------- 0 0.0 3.0 12 18
+ 1.38952 2 3 tcp 1540 ------- 0 0.0 3.0 12 18
- 1.38952 2 3 tcp 1540 ------- 0 0.0 3.0 12 18
r 1.39616 2 0 ack 40 ------- 0 3.0 0.0 10 31
+ 1.39616 0 2 tcp 1540 ------- 0 0.0 3.0 21 32
+ 1.39616 0 2 tcp 1540 ------- 0 0.0 3.0 22 33
r 1.39952 2 3 tcp 1540 ------- 0 0.0 3.0 11 17
+ 1.39952 3 2 ack 40 ------- 0 3.0 0.0 11 34
- 1.39952 3 2 ack 40 ------- 0 3.0 0.0 11 34
- 1.40416 0 2 tcp 1540 ------- 0 0.0 3.0 14 21
r 1.41016 3 2 ack 40 ------- 0 3.0 0.0 11 34
+ 1.41016 2 0 ack 40 ------- 0 3.0 0.0 11 34
- 1.41016 2 0 ack 40 ------- 0 3.0 0.0 11 34
r 1.41416 0 2 tcp 1540 ------- 0 0.0 3.0 13 20
+ 1.41416 2 3 tcp 1540 ------- 0 0.0 3.0 13 20
- 1.41416 2 3 tcp 1540 ------- 0 0.0 3.0 13 20
r 1.4208 2 0 ack 40 ------- 0 3.0 0.0 11 34
+ 1.4208 0 2 tcp 1540 ------- 0 0.0 3.0 23 35
+ 1.4208 0 2 tcp 1540 ------- 0 0.0 3.0 24 36
r 1.42416 2 3 tcp 1540 ------- 0 0.0 3.0 12 18
+ 1.42416 3 2 ack 40 ------- 0 3.0 0.0 12 37
- 1.42416 3 2 ack 40 ------- 0 3.0 0.0 12 37
- 1.4288 0 2 tcp 1540 ------- 0 0.0 3.0 15 23
r 1.4348 3 2 ack 40 ------- 0 3.0 0.0 12 37
+ 1.4348 2 0 ack 40 ------- 0 3.0 0.0 12 37
- 1.4348 2 0 ack 40 ------- 0 3.0 0.0 12 37
r 1.4388 0 2 tcp 1540 ------- 0 0.0 3.0 14 21
+ 1.4388 2 3 tcp 1540 ------- 0 0.0 3.0 14 21
- 1.4388 2 3 tcp 1540 ------- 0 0.0 3.0 14 21
r 1.44544 2 0 ack 40 ------- 0 3.0 0.0 12 37
+ 1.44544 0 2 tcp 1540 ------- 0 0.0 3.0 25 38
+ 1.44544 0 2 tcp 1540 ------- 0 0.0 3.0 26 39
r 1.4488 2 3 tcp 1540 ------- 0 0.0 3.0 13 20
+ 1.4488 3 2 ack 40 ------- 0 3.0 0.0 13 40
- 1.4488 3 2 ack 40 ------- 0 3.0 0.0 13 40
- 1.45344 0 2 tcp 1540 ------- 0 0.0 3.0 16 24
r 1.45944 3 2 ack 40 ------- 0 3.0 0.0 13 40
+ 1.45944 2 0 ack 40 ------- 0 3.0 0.0 13 40
- 1.45944 2 0 ack 40 ------- 0 3.0 0.0 13 40
r 1.46344 0 2 tcp 1540 ------- 0 0.0 3.0 15 23
+ 1.46344 2 3 tcp 1540 ------- 0 0.0 3.0 15 23
- 1.46344 2 3 tcp 1540 ------- 0 0.0 3.0 15 23
r 1.47008 2 0 ack 40 ------- 0 3.0 0.0 13 40
+ 1.47008 0 2 tcp 1540 ------- 0 0.0 3.0 27 41
+ 1.47008 0 2 tcp 1540 ------- 0 0.0 3.0 28 42
r 1.47344 2 3 tcp 1540 ------- 0 0.0 3.0 14 21
+ 1.47344 3 2 ack 40 ------- 0 3.0 0.0 14 43
- 1.47344 3 2 ack 40 ------- 0 3.0 0.0 14 43
- 1.47808 0 2 tcp 1540 ------- 0 0.0 3.0 17 26
r 1.48408 3 2 ack 40 ------- 0 3.0 0.0 14 43
+ 1.48408 2 0 ack 40 ------- 0 3.0 0.0 14 43
- 1.48408 2 0 ack 40 ------- 0 3.0 0.0 14 43
r 1.48808 0 2 tcp 1540 ------- 0 0.0 3.0 16 24
+ 1.48808 2 3 tcp 1540 ------- 0 0.0 3.0 16 24
- 1.48808 2 3 tcp 1540 ------- 0 0.0 3.0 16 24
r 1.49472 2 0 ack 40 ------- 0 3.0 0.0 14 43
+ 1.49472 0 2 tcp 1540 ------- 0 0.0 3.0 29 44
+ 1.49472 0 2 tcp 1540 ------- 0 0.0 3.0 30 45
r 1.49808 2 3 tcp 1540 ------- 0 0.0 3.0 15 23
+ 1.49808 3 2 ack 40 ------- 0 3.0 0.0 15 46
- 1.49808 3 2 ack 40 ------- 0 3.0 0.0 15 46
- 1.50272 0 2 tcp 1540 ------- 0 0.0 3.0 18 27
r 1.50872 3 2 ack 40 ------- 0 3.0 0.0 15 46
+ 1.50872 2 0 ack 40 ------- 0 3.0 0.0 15 46
- 1.50872 2 0 ack 40 ------- 0 3.0 0.0 15 46
r 1.51272 0 2 tcp 1540 ------- 0 0.0 3.0 17 26
+ 1.51272 2 3 tcp 1540 ------- 0 0.0 3.0 17 26
- 1.51272 2 3 tcp 1540 ------- 0 0.0 3.0 17 26
r 1.51936 2 0 ack 40 ------- 0 3.0 0.0 15 46
+ 1.51936 0 2 tcp 1540 ------- 0 0.0 3.0 31 47
+ 1.51936 0 2 tcp 1540 ------- 0 0.0 3.0 32 48
r 1.52272 2 3 tcp 1540 ------- 0 0.0 3.0 16 24
+ 1.52272 3 2 ack 40 ------- 0 3.0 0.0 16 49
- 1.52272 3 2 ack 40 ------- 0 3.0 0.0 16 49
- 1.52736 0 2 tcp 1540 ------- 0 0.0 3.0 19 29
r 1.53336 3 2 ack 40 ------- 0 3.0 0.0 16 49
+ 1.53336 2 0 ack 40 ------- 0 3.0 0.0 16 49
- 1.53336 2 0 ack 40 ------- 0 3.0 0.0 16 49
r 1.53736 0 2 tcp 1540 ------- 0 0.0 3.0 18 27
+ 1.53736 2 3 tcp 1540 ------- 0 0.0 3.0 18 27
- 1.53736 2 3 tcp 1540 ------- 0 0.0 3.0 18 27
r 1.544 2 0 ack 40 ------- 0 3.0 0.0 16 49
+ 1.544 0 2 tcp 1540 ------- 0 0.0 3.0 33 50
+ 1.544 0 2 tcp 1540 ------- 0 0.0 3.0 34 51
r 1.54736 2 3 tcp 1540 ------- 0 0.0 3.0 17 26
+ 1.54736 3 2 ack 40 ------- 0 3.0 0.0 17 52
- 1.54736 3 2 ack 40 ------- 0 3.0 0.0 17 52
- 1.552 0 2 tcp 1540 ------- 0 0.0 3.0 20 30
r 1.558 3 2 ack 40 ------- 0 3.0 0.0 17 52
+ 1.558 2 0 ack 40 ------- 0 3.0 0.0 17 52
- 1.558 2 0 ack 40 ------- 0 3.0 0.0 17 52
r 1.562 0 2 tcp 1540 ------- 0 0.0 3.0 19 29
+ 1.562 2 3 tcp 1540 ------- 0 0.0 3.0 19 29
- 1.562 2 3 tcp 1540 ------- 0 0.0 3.0 19 29
r 1.56864 2 0 ack 40 ------- 0 3.0 0.0 17 52
+ 1.56864 0 2 tcp 1540 ------- 0 0.0 3.0 35 53
+ 1.56864 0 2 tcp 1540 ------- 0 0.0 3.0 36 54
r 1.572 2 3 tcp 1540 ------- 0 0.0 3.0 18 27
+ 1.572 3 2 ack 40 ------- 0 3.0 0.0 18 55
- 1.572 3 2 ack 40 ------- 0 3.0 0.0 18 55
- 1.57664 0 2 tcp 1540 ------- 0 0.0 3.0 21 32
r 1.58264 3 2 ack 40 ------- 0 3.0 0.0 18 55
+ 1.58264 2 0 ack 40 ------- 0 3.0 0.0 18 55
- 1.58264 2 0 ack 40 ------- 0 3.0 0.0 18 55
r 1.58664 0 2 tcp 1540 ------- 0 0.0 3.0 20 30
+ 1.58664 2 3 tcp 1540 ------- 0 0.0 3.0 20 30
- 1.58664 2 3 tcp 1540 ------- 0 0.0 3.0 20 30
r 1.59328 2 0 ack 40 ------- 0 3.0 0.0 18 55
+ 1.59328 0 2 tcp 1540 ------- 0 0.0 3.0 37 56
+ 1.59328 0 2 tcp 1540 ------- 0 0.0 3.0 38 57
r 1.59664 2 3 tcp 1540 ------- 0 0.0 3.0 19 29
+ 1.59664 3 2 ack 40 ------- 0 3.0 0.0 19 58
- 1.59664 3 2 ack 40 ------- 0 3.0 0.0 19 58
- 1.60128 0 2 tcp 1540 ------- 0 0.0 3.0 22 33
r 1.60728 3 2 ack 40 ------- 0 3.0 0.0 19 58
+ 1.60728 2 0 ack 40 ------- 0 3.0 0.0 19 58
- 1.60728 2 0 ack 40 ------- 0 3.0 0.0 19 58
r 1.61128 0 2 tcp 1540 ------- 0 0.0 3.0 21 32
+ 1.61128 2 3 tcp 1540 ------- 0 0.0 3.0 21 32
- 1.61128 2 3 tcp 1540 ------- 0 0.0 3.0 21 32
r 1.61792 2 0 ack 40 ------- 0 3.0 0.0 19 58
+ 1.61792 0 2 tcp 1540 ------- 0 0.0 3.0 39 59
r 1.62128 2 3 tcp 1540 ------- 0 0.0 3.0 20 30
+ 1.62128 3 2 ack 40 ------- 0 3.0 0.0 20 60
- 1.62128 3 2 ack 40 ------- 0 3.0 0.0 20 60
- 1.62592 0 2 tcp 1540 ------- 0 0.0 3.0 23 35
r 1.63192 3 2 ack 40 ------- 0 3.0 0.0 20 60
+ 1.63192 2 0 ack 40 ------- 0 3.0 0.0 20 60
- 1.63192 2 0 ack 40 ------- 0 3.0 0.0 20 60
r 1.63592 0 2 tcp 1540 ------- 0 0.0 3.0 22 33
+ 1.63592 2 3 tcp 1540 ------- 0 0.0 3.0 22 33
- 1.63592 2 3 tcp 1540 ------- 0 0.0 3.0 22 33
r 1.64256 2 0 ack 40 ------- 0 3.0 0.0 20 60
+ 1.64256 0 2 tcp 1540 ------- 0 0.0 3.0 40 61
r 1.64592 2 3 tcp 1540 ------- 0 0.0 3.0 21 32
+ 1.64592 3 2 ack 40 ------- 0 3.0 0.0 21 62
- 1.64592 3 2 ack 40 ------- 0 3.0 0.0 21 62
- 1.65056 0 2 tcp 1540 ------- 0 0.0 3.0 24 36
r 1.65656 3 2 ack 40 ------- 0 3.0 0.0 21 62
+ 1.65656 2 0 ack 40 ------- 0 3.0 0.0 21 62
- 1.65656 2 0 ack 40 ------- 0 3.0 0.0 21 62
r 1.66056 0 2 tcp 1540 ------- 0 0.0 3.0 23 35
+ 1.66056 2 3 tcp 1540 ------- 0 0.0 3.0 23 35
- 1.66056 2 3 tcp 1540 ------- 0 0.0 3.0 23 35
r 1.6672 2 0 ack 40 ------- 0 3.0 0.0 21 62
+ 1.6672 0 2 tcp 1540 ------- 0 0.0 3.0 41 63
r 1.67056 2 3 tcp 1540 ------- 0 0.0 3.0 22 33
+ 1.67056 3 2 ack 40 ------- 0 3.0 0.0 22 64
- 1.67056 3 2 ack 40 ------- 0 3.0 0.0 22 64
- 1.6752 0 2 tcp 1540 ------- 0 0.0 3.0 25 38
r 1.6812 3 2 ack 40 ------- 0 3.0 0.0 22 64
+ 1.6812 2 0 ack 40 ------- 0 3.0 0.0 22 64
- 1.6812 2 0 ack 40 ------- 0 3.0 0.0 22 64
r 1.6852 0 2 tcp 1540 ------- 0 0.0 3.0 24 36
+ 1.6852 2 3 tcp 1540 ------- 0 0.0 3.0 24 36
- 1.6852 2 3 tcp 1540 ------- 0 0.0 3.0 24 36
r 1.69184 2 0 ack 40 ------- 0 3.0 0.0 22 64
+ 1.69184 0 2 tcp 1540 ------- 0 0.0 3.0 42 65
r 1.6952 2 3 tcp 1540 ------- 0 0.0 3.0 23 35
+ 1.6952 3 2 ack 40 ------- 0 3.0 0.0 23 66
- 1.6952 3 2 ack 40 ------- 0 3.0 0.0 23 66
- 1.69984 0 2 tcp 1540 ------- 0 0.0 3.0 26 39
r 1.70584 3 2 ack 40 ------- 0 3.0 0.0 23 66
+ 1.70584 2 0 ack 40 ------- 0 3.0 0.0 23 66
- 1.70584 2 0 ack 40 ------- 0 3.0 0.0 23 66
r 1.70984 0 2 tcp 1540 ------- 0 0.0 3.0 25 38
+ 1.70984 2 3 tcp 1540 ------- 0 0.0 3.0 25 38
- 1.70984 2 3 tcp 1540 ------- 0 0.0 3.0 25 38
r 1.71648 2 0 ack 40 ------- 0 3.0 0.0 23 66
+ 1.71648 0 2 tcp 1540 ------- 0 0.0 3.0 43 67
r 1.71984 2 3 tcp 1540 ------- 0 0.0 3.0 24 36
+ 1.71984 3 2 ack 40 ------- 0 3.0 0.0 24 68
- 1.71984 3 2 ack 40 ------- 0 3.0 0.0 24 68
- 1.72448 0 2 tcp 1540 ------- 0 0.0 3.0 27 41
r 1.73048 3 2 ack 40 ------- 0 3.0 0.0 24 68
+ 1.73048 2 0 ack 40 ------- 0 3.0 0.0 24 68
- 1.73048 2 0 ack 40 ------- 0 3.0 0.0 24 68
r 1.73448 0 2 tcp 1540 ------- 0 0.0 3.0 26 39
+ 1.73448 2 3 tcp 1540 ------- 0 0.0 3.0 26 39
- 1.73448 2 3 tcp 1540 ------- 0 0.0 3.0 26 39
r 1.74112 2 0 ack 40 ------- 0 3.0 0.0 24 68
+ 1.74112 0 2 tcp 1540 ------- 0 0.0 3.0 44 69
r 1.74448 2 3 tcp 1540 ------- 0 0.0 3.0 25 38
+ 1.74448 3 2 ack 40 ------- 0 3.0 0.0 25 70
- 1.74448 3 2 ack 40 ------- 0 3.0 0.0 25 70
- 1.74912 0 2 tcp 1540 ------- 0 0.0 3.0 28 42
r 1.75512 3 2 ack 40 ------- 0 3.0 0.0 25 70
+ 1.75512 2 0 ack 40 ------- 0 3.0 0.0 25 70
- 1.75512 2 0 ack 40 ------- 0 3.0 0.0 25 70
r 1.75912 0 2 tcp 1540 ------- 0 0.0 3.0 27 41
+ 1.75912 2 3 tcp 1540 ------- 0 0.0 3.0 27 41
- 1.75912 2 3 tcp 1540 ------- 0 0.0 3.0 27 41
r 1.76576 2 0 ack 40 ------- 0 3.0 0.0 25 70
+ 1.76576 0 2 tcp 1540 ------- 0 0.0 3.0 45 71
r 1.76912 2 3 tcp 1540 ------- 0 0.0 3.0 26 39
+ 1.76912 3 2 ack 40 ------- 0 3.0 0.0 26 72
- 1.76912 3 2 ack 40 ------- 0 3.0 0.0 26 72
- 1.77376 0 2 tcp 1540 ------- 0 0.0 3.0 29 44
r 1.77976 3 2 ack 40 ------- 0 3.0 0.0 26 72
+ 1.77976 2 0 ack 40 ------- 0 3.0 0.0 26 72
- 1.77976 2 0 ack 40 ------- 0 3.0 0.0 26 72
r 1.78376 0 2 tcp 1540 ------- 0 0.0 3.0 28 42
+ 1.78376 2 3 tcp 1540 ------- 0 0.0 3.0 28 42
- 1.78376 2 3 tcp 1540 ------- 0 0.0 3.0 28 42
r 1.7904 2 0 ack 40 ------- 0 3.0 0.0 26 72
+ 1.7904 0 2 tcp 1540 ------- 0 0.0 3.0 46 73
r 1.79376 2 3 tcp 1540 ------- 0 0.0 3.0 27 41
+ 1.79376 3 2 ack 40 ------- 0 3.0 0.0 27 74
- 1.79376 3 2 ack 40 ------- 0 3.0 0.0 27 74
- 1.7984 0 2 tcp 1540 ------- 0 0.0 3.0 30 45
r 1.8044 3 2 ack 40 ------- 0 3.0 0.0 27 74
+ 1.8044 2 0 ack 40 ------- 0 3.0 0.0 27 74
- 1.8044 2 0 ack 40 ------- 0 3.0 0.0 27 74
r 1.8084 0 2 tcp 1540 ------- 0 0.0 3.0 29 44
+ 1.8084 2 3 tcp 1540 ------- 0 0.0 3.0 29 44
- 1.8084 2 3 tcp 1540 ------- 0 0.0 3.0 29 44
r 1.81504 2 0 ack 40 ------- 0 3.0 0.0 27 74
+ 1.81504 0 2 tcp 1540 ------- 0 0.0 3.0 47 75
r 1.8184 2 3 tcp 1540 ------- 0 0.0 3.0 28 42
+ 1.8184 3 2 ack 40 ------- 0 3.0 0.0 28 76
- 1.8184 3 2 ack 40 ------- 0 3.0 0.0 28 76
- 1.82304 0 2 tcp 1540 ------- 0 0.0 3.0 31 47
r 1.82904 3 2 ack 40 ------- 0 3.0 0.0 28 76
+ 1.82904 2 0 ack 40 ------- 0 3.0 0.0 28 76
- 1.82904 2 0 ack 40 ------- 0 3.0 0.0 28 76
r 1.83304 0 2 tcp 1540 ------- 0 0.0 3.0 30 45
+ 1.83304 2 3 tcp 1540 ------- 0 0.0 3.0 30 45
- 1.83304 2 3 tcp 1540 ------- 0 0.0 3.0 30 45
r 1.83968 2 0 ack 40 ------- 0 3.0 0.0 28 76
+ 1.83968 0 2 tcp 1540 ------- 0 0.0 3.0 48 77
r 1.84304 2 3 tcp 1540 ------- 0 0.0 3.0 29 44
+ 1.84304 3 2 ack 40 ------- 0 3.0 0.0 29 78
- 1.84304 3 2 ack 40 ------- 0 3.0 0.0 29 78
- 1.84768 0 2 tcp 1540 ------- 0 0.0 3.0 32 48
r 1.85368 3 2 ack 40 ------- 0 3.0 0.0 29 78
+ 1.85368 2 0 ack 40 ------- 0 3.0 0.0 29 78
- 1.85368 2 0 ack 40 ------- 0 3.0 0.0 29 78
r 1.85768 0 2 tcp 1540 ------- 0 0.0 3.0 31 47
+ 1.85768 2 3 tcp 1540 ------- 0 0.0 3.0 31 47
- 1.85768 2 3 tcp 1540 ------- 0 0.0 3.0 31 47
r 1.86432 2 0 ack 40 ------- 0 3.0 0.0 29 78
+ 1.86432 0 2 tcp 1540 ------- 0 0.0 3.0 49 79
r 1.86768 2 3 tcp 1540 ------- 0 0.0 3.0 30 45
+ 1.86768 3 2 ack 40 ------- 0 3.0 0.0 30 80
- 1.86768 3 2 ack 40 ------- 0 3.0 0.0 30 80
- 1.87232 0 2 tcp 1540 ------- 0 0.0 3.0 33 50
r 1.87832 3 2 ack 40 ------- 0 3.0 0.0 30 80
+ 1.87832 2 0 ack 40 ------- 0 3.0 0.0 30 80
- 1.87832 2 0 ack 40 ------- 0 3.0 0.0 30 80
r 1.88232 0 2 tcp 1540 ------- 0 0.0 3.0 32 48
+ 1.88232 2 3 tcp 1540 ------- 0 0.0 3.0 32 48
- 1.88232 2 3 tcp 1540 ------- 0 0.0 3.0 32 48
r 1.88896 2 0 ack 40 ------- 0 3.0 0.0 30 80
+ 1.88896 0 2 tcp 1540 ------- 0 0.0 3.0 50 81
r 1.89232 2 3 tcp 1540 ------- 0 0.0 3.0 31 47
+ 1.89232 3 2 ack 40 ------- 0 3.0 0.0 31 82
- 1.89232 3 2 ack 40 ------- 0 3.0 0.0 31 82
- 1.89696 0 2 tcp 1540 ------- 0 0.0 3.0 34 51
r 1.90296 3 2 ack 40 ------- 0 3.0 0.0 31 82
+ 1.90296 2 0 ack 40 ------- 0 3.0 0.0 31 82
- 1.90296 2 0 ack 40 ------- 0 3.0 0.0 31 82
r 1.90696 0 2 tcp 1540 ------- 0 0.0 3.0 33 50
+ 1.90696 2 3 tcp 1540 ------- 0 0.0 3.0 33 50
- 1.90696 2 3 tcp 1540 ------- 0 0.0 3.0 33 50
r 1.9136 2 0 ack 40 ------- 0 3.0 0.0 31 82
+ 1.9136 0 2 tcp 1540 ------- 0 0.0 3.0 51 83
r 1.91696 2 3 tcp 1540 ------- 0 0.0 3.0 32 48
+ 1.91696 3 2 ack 40 ------- 0 3.0 0.0 32 84
- 1.91696 3 2 ack 40 ------- 0 3.0 0.0 32 84
- 1.9216 0 2 tcp 1540 ------- 0 0.0 3.0 35 53
r 1.9276 3 2 ack 40 ------- 0 3.0 0.0 32 84
+ 1.9276 2 0 ack 40 ------- 0 3.0 0.0 32 84
- 1.9276 2 0 ack 40 ------- 0 3.0 0.0 32 84
r 1.9316 0 2 tcp 1540 ------- 0 0.0 3.0 34 51
+ 1.9316 2 3 tcp 1540 ------- 0 0.0 3.0 34 51
- 1.9316 2 3 tcp 1540 ------- 0 0.0 3.0 34 51
r 1.93824 2 0 ack 40 ------- 0 3.0 0.0 32 84
+ 1.93824 0 2 tcp 1540 ------- 0 0.0 3.0 52 85
r 1.9416 2 3 tcp 1540 ------- 0 0.0 3.0 33 50
+ 1.9416 3 2 ack 40 ------- 0 3.0 0.0 33 86
- 1.9416 3 2 ack 40 ------- 0 3.0 0.0 33 86
- 1.94624 0 2 tcp 1540 ------- 0 0.0 3.0 36 54
r 1.95224 3 2 ack 40 ------- 0 3.0 0.0 33 86
+ 1.95224 2 0 ack 40 ------- 0 3.0 0.0 33 86
- 1.95224 2 0 ack 40 ------- 0 3.0 0.0 33 86
r 1.95624 0 2 tcp 1540 ------- 0 0.0 3.0 35 53
+ 1.95624 2 3 tcp 1540 ------- 0 0.0 3.0 35 53
- 1.95624 2 3 tcp 1540 ------- 0 0.0 3.0 35 53
r 1.96288 2 0 ack 40 ------- 0 3.0 0.0 33 86
+ 1.96288 0 2 tcp 1540 ------- 0 0.0 3.0 53 87
r 1.96624 2 3 tcp 1540 ------- 0 0.0 3.0 34 51
+ 1.96624 3 2 ack 40 ------- 0 3.0 0.0 34 88
- 1.96624 3 2 ack 40 ------- 0 3.0 0.0 34 88
- 1.97088 0 2 tcp 1540 ------- 0 0.0 3.0 37 56
r 1.97688 3 2 ack 40 ------- 0 3.0 0.0 34 88
+ 1.97688 2 0 ack 40 ------- 0 3.0 0.0 34 88
- 1.97688 2 0 ack 40 ------- 0 3.0 0.0 34 88
r 1.98088 0 2 tcp 1540 ------- 0 0.0 3.0 36 54
+ 1.98088 2 3 tcp 1540 ------- 0 0.0 3.0 36 54
- 1.98088 2 3 tcp 1540 ------- 0 0.0 3.0 36 54
r 1.98752 2 0 ack 40 ------- 0 3.0 0.0 34 88
+ 1.98752 0 2 tcp 1540 ------- 0 0.0 3.0 54 89
r 1.99088 2 3 tcp 1540 ------- 0 0.0 3.0 35 53
+ 1.99088 3 2 ack 40 ------- 0 3.0 0.0 35 90
- 1.99088 3 2 ack 40 ------- 0 3.0 0.0 35 90
- 1.99552 0 2 tcp 1540 ------- 0 0.0 3.0 38 57
r 2.00152 3 2 ack 40 ------- 0 3.0 0.0 35 90
+ 2.00152 2 0 ack 40 ------- 0 3.0 0.0 35 90
- 2.00152 2 0 ack 40 ------- 0 3.0 0.0 35 90
r 2.00552 0 2 tcp 1540 ------- 0 0.0 3.0 37 56
+ 2.00552 2 3 tcp 1540 ------- 0 0.0 3.0 37 56
- 2.00552 2 3 tcp 1540 ------- 0 0.0 3.0 37 56
r 2.01216 2 0 ack 40 ------- 0 3.0 0.0 35 90
+ 2.01216 0 2 tcp 1540 ------- 0 0.0 3.0 55 91
r 2.01552 2 3 tcp 1540 ------- 0 0.0 3.0 36 54
+ 2.01552 3 2 ack 40 ------- 0 3.0 0.0 36 92
- 2.01552 3 2 ack 40 ------- 0 3.0 0.0 36 92
- 2.02016 0 2 tcp 1540 ------- 0 0.0 3.0 39 59
r 2.02616 3 2 ack 40 ------- 0 3.0 0.0 36 92
+ 2.02616 2 0 ack 40 ------- 0 3.0 0.0 36 92
- 2.02616 2 0 ack 40 ------- 0 3.0 0.0 36 92
r 2.03016 0 2 tcp 1540 ------- 0 0.0 3.0 38 57
+ 2.03016 2 3 tcp 1540 ------- 0 0.0 3.0 38 57
- 2.03016 2 3 tcp 1540 ------- 0 0.0 3.0 38 57
r 2.0368 2 0 ack 40 ------- 0 3.0 0.0 36 92
+ 2.0368 0 2 tcp 1540 ------- 0 0.0 3.0 56 93
r 2.04016 2 3 tcp 1540 ------- 0 0.0 3.0 37 56
+ 2.04016 3 2 ack 40 ------- 0 3.0 0.0 37 94
- 2.04016 3 2 ack 40 ------- 0 3.0 0.0 37 94
- 2.0448 0 2 tcp 1540 ------- 0 0.0 3.0 40 61
r 2.0508 3 2 ack 40 ------- 0 3.0 0.0 37 94
+ 2.0508 2 0 ack 40 ------- 0 3.0 0.0 37 94
- 2.0508 2 0 ack 40 ------- 0 3.0 0.0 37 94
r 2.0548 0 2 tcp 1540 ------- 0 0.0 3.0 39 59
+ 2.0548 2 3 tcp 1540 ------- 0 0.0 3.0 39 59
- 2.0548 2 3 tcp 1540 ------- 0 0.0 3.0 39 59
r 2.06144 2 0 ack 40 ------- 0 3.0 0.0 37 94
+ 2.06144 0 2 tcp 1540 ------- 0 0.0 3.0 57 95
r 2.0648 2 3 tcp 1540 ------- 0 0.0 3.0 38 57
+ 2.0648 3 2 ack 40 ------- 0 3.0 0.0 38 96
- 2.0648 3 2 ack 40 ------- 0 3.0 0.0 38 96
- 2.06944 0 2 tcp 1540 ------- 0 0.0 3.0 41 63
r 2.07544 3 2 ack 40 ------- 0 3.0 0.0 38 96
+ 2.07544 2 0 ack 40 ------- 0 3.0 0.0 38 96
- 2.07544 2 0 ack 40 ------- 0 3.0 0.0 38 96
r 2.07944 0 2 tcp 1540 ------- 0 0.0 3.0 40 61
+ 2.07944 2 3 tcp 1540 ------- 0 0.0 3.0 40 61
- 2.07944 2 3 tcp 1540 ------- 0 0.0 3.0 40 61
r 2.08608 2 0 ack 40 ------- 0 3.0 0.0 38 96
+ 2.08608 0 2 tcp 1540 ------- 0 0.0 3.0 58 97
r 2.08944 2 3 tcp 1540 ------- 0 0.0 3.0 39 59
+ 2.08944 3 2 ack 40 ------- 0 3.0 0.0 39 98
- 2.08944 3 2 ack 40 ------- 0 3.0 0.0 39 98
- 2.09408 0 2 tcp 1540 ------- 0 0.0 3.0 42 65
r 2.10008 3 2 ack 40 ------- 0 3.0 0.0 39 98
+ 2.10008 2 0 ack 40 ------- 0 3.0 0.0 39 98
- 2.10008 2 0 ack 40 ------- 0 3.0 0.0 39 98
r 2.10408 0 2 tcp 1540 ------- 0 0.0 3.0 41 63
+ 2.10408 2 3 tcp 1540 ------- 0 0.0 3.0 41 63
- 2.10408 2 3 tcp 1540 ------- 0 0.0 3.0 41 63
r 2.11072 2 0 ack 40 ------- 0 3.0 0.0 39 98
+ 2.11072 0 2 tcp 1540 ------- 0 0.0 3.0 59 99
r 2.11408 2 3 tcp 1540 ------- 0 0.0 3.0 40 61
+ 2.11408 3 2 ack 40 ------- 0 3.0 0.0 40 100
- 2.11408 3 2 ack 40 ------- 0 3.0 0.0 40 100
- 2.11872 0 2 tcp 1540 ------- 0 0.0 3.0 43 67
r 2.12472 3 2 ack 40 ------- 0 3.0 0.0 40 100
+ 2.12472 2 0 ack 40 ------- 0 3.0 0.0 40 100
- 2.12472 2 0 ack 40 ------- 0 3.0 0.0 40 100
r 2.12872 0 2 tcp 1540 ------- 0 0.0 3.0 42 65
+ 2.12872 2 3 tcp 1540 ------- 0 0.0 3.0 42 65
- 2.12872 2 3 tcp 1540 ------- 0 0.0 3.0 42 65
r 2.13536 2 0 ack 40 ------- 0 3.0 0.0 40 100
+ 2.13536 0 2 tcp 1540 ------- 0 0.0 3.0 60 101
r 2.13872 2 3 tcp 1540 ------- 0 0.0 3.0 41 63
+ 2.13872 3 2 ack 40 ------- 0 3.0 0.0 41 102
- 2.13872 3 2 ack 40 ------- 0 3.0 0.0 41 102
- 2.14336 0 2 tcp 1540 ------- 0 0.0 3.0 44 69
r 2.14936 3 2 ack 40 ------- 0 3.0 0.0 41 102
+ 2.14936 2 0 ack 40 ------- 0 3.0 0.0 41 102
- 2.14936 2 0 ack 40 ------- 0 3.0 0.0 41 102
r 2.15336 0 2 tcp 1540 ------- 0 0.0 3.0 43 67
+ 2.15336 2 3 tcp 1540 ------- 0 0.0 3.0 43 67
- 2.15336 2 3 tcp 1540 ------- 0 0.0 3.0 43 67
r 2.16 2 0 ack 40 ------- 0 3.0 0.0 41 102
+ 2.16 0 2 tcp 1540 ------- 0 0.0 3.0 61 103
r 2.16336 2 3 tcp 1540 ------- 0 0.0 3.0 42 65
+ 2.16336 3 2 ack 40 ------- 0 3.0 0.0 42 104
- 2.16336 3 2 ack 40 ------- 0 3.0 0.0 42 104
- 2.168 0 2 tcp 1540 ------- 0 0.0 3.0 45 71
r 2.174 3 2 ack 40 ------- 0 3.0 0.0 42 104
+ 2.174 2 0 ack 40 ------- 0 3.0 0.0 42 104
- 2.174 2 0 ack 40 ------- 0 3.0 0.0 42 104
r 2.178 0 2 tcp 1540 ------- 0 0.0 3.0 44 69
+ 2.178 2 3 tcp 1540 ------- 0 0.0 3.0 44 69
- 2.178 2 3 tcp 1540 ------- 0 0.0 3.0 44 69
r 2.18464 2 0 ack 40 ------- 0 3.0 0.0 42 104
+ 2.18464 0 2 tcp 1540 ------- 0 0.0 3.0 62 105
r 2.188 2 3 tcp 1540 ------- 0 0.0 3.0 43 67
+ 2.188 3 2 ack 40 ------- 0 3.0 0.0 43 106
- 2.188 3 2 ack 40 ------- 0 3.0 0.0 43 106
- 2.19264 0 2 tcp 1540 ------- 0 0.0 3.0 46 73
r 2.19864 3 2 ack 40 ------- 0 3.0 0.0 43 106
+ 2.19864 2 0 ack 40 ------- 0 3.0 0.0 43 106
- 2.19864 2 0 ack 40 ------- 0 3.0 0.0 43 106
r 2.20264 0 2 tcp 1540 ------- 0 0.0 3.0 45 71
+ 2.20264 2 3 tcp 1540 ------- 0 0.0 3.0 45 71
- 2.20264 2 3 tcp 1540 ------- 0 0.0 3.0 45 71
r 2.20928 2 0 ack 40 ------- 0 3.0 0.0 43 106
+ 2.20928 0 2 tcp 1540 ------- 0 0.0 3.0 63 107
r 2.21264 2 3 tcp 1540 ------- 0 0.0 3.0 44 69
+ 2.21264 3 2 ack 40 ------- 0 3.0 0.0 44 108
- 2.21264 3 2 ack 40 ------- 0 3.0 0.0 44 108
- 2.21728 0 2 tcp 1540 ------- 0 0.0 3.0 47 75
r 2.22328 3 2 ack 40 ------- 0 3.0 0.0 44 108
+ 2.22328 2 0 ack 40 ------- 0 3.0 0.0 44 108
- 2.22328 2 0 ack 40 ------- 0 3.0 0.0 44 108
r 2.22728 0 2 tcp 1540 ------- 0 0.0 3.0 46 73
+ 2.22728 2 3 tcp 1540 ------- 0 0.0 3.0 46 73
- 2.22728 2 3 tcp 1540 ------- 0 0.0 3.0 46 73
r 2.23392 2 0 ack 40 ------- 0 3.0 0.0 44 108
+ 2.23392 0 2 tcp 1540 ------- 0 0.0 3.0 64 109
r 2.23728 2 3 tcp 1540 ------- 0 0.0 3.0 45 71
+ 2.23728 3 2 ack 40 ------- 0 3.0 0.0 45 110
- 2.23728 3 2 ack 40 ------- 0 3.0 0.0 45 110
- 2.24192 0 2 tcp 1540 ------- 0 0.0 3.0 48 77
r 2.24792 3 2 ack 40 ------- 0 3.0 0.0 45 110
+ 2.24792 2 0 ack 40 ------- 0 3.0 0.0 45 110
- 2.24792 2 0 ack 40 ------- 0 3.0 0.0 45 110
r 2.25192 0 2 tcp 1540 ------- 0 0.0 3.0 47 75
+ 2.25192 2 3 tcp 1540 ------- 0 0.0 3.0 47 75
- 2.25192 2 3 tcp 1540 ------- 0 0.0 3.0 47 75
r 2.25856 2 0 ack 40 ------- 0 3.0 0.0 45 110
+ 2.25856 0 2 tcp 1540 ------- 0 0.0 3.0 65 111
r 2.26192 2 3 tcp 1540 ------- 0 0.0 3.0 46 73
+ 2.26192 3 2 ack 40 ------- 0 3.0 0.0 46 112
- 2.26192 3 2 ack 40 ------- 0 3.0 0.0 46 112
- 2.26656 0 2 tcp 1540 ------- 0 0.0 3.0 49 79
r 2.27256 3 2 ack 40 ------- 0 3.0 0.0 46 112
+ 2.27256 2 0 ack 40 ------- 0 3.0 0.0 46 112
- 2.27256 2 0 ack 40 ------- 0 3.0 0.0 46 112
r 2.27656 0 2 tcp 1540 ------- 0 0.0 3.0 48 77
+ 2.27656 2 3 tcp 1540 ------- 0 0.0 3.0 48 77
- 2.27656 2 3 tcp 1540 ------- 0 0.0 3.0 48 77
r 2.2832 2 0 ack 40 ------- 0 3.0 0.0 46 112
+ 2.2832 0 2 tcp 1540 ------- 0 0.0 3.0 66 113
r 2.28656 2 3 tcp 1540 ------- 0 0.0 3.0 47 75
+ 2.28656 3 2 ack 40 ------- 0 3.0 0.0 47 114
- 2.28656 3 2 ack 40 ------- 0 3.0 0.0 47 114
- 2.2912 0 2 tcp 1540 ------- 0 0.0 3.0 50 81
r 2.2972 3 2 ack 40 ------- 0 3.0 0.0 47 114
+ 2.2972 2 0 ack 40 ------- 0 3.0 0.0 47 114
- 2.2972 2 0 ack 40 ------- 0 3.0 0.0 47 114
r 2.3012 0 2 tcp 1540 ------- 0 0.0 3.0 49 79
+ 2.3012 2 3 tcp 1540 ------- 0 0.0 3.0 49 79
- 2.3012 2 3 tcp 1540 ------- 0 0.0 3.0 49 79
r 2.30784 2 0 ack 40 ------- 0 3.0 0.0 47 114
+ 2.30784 0 2 tcp 1540 ------- 0 0.0 3.0 67 115
r 2.3112 2 3 tcp 1540 ------- 0 0.0 3.0 48 77
+ 2.3112 3 2 ack 40 ------- 0 3.0 0.0 48 116
- 2.3112 3 2 ack 40 ------- 0 3.0 0.0 48 116
- 2.31584 0 2 tcp 1540 ------- 0 0.0 3.0 51 83
r 2.32184 3 2 ack 40 ------- 0 3.0 0.0 48 116
+ 2.32184 2 0 ack 40 ------- 0 3.0 0.0 48 116
- 2.32184 2 0 ack 40 ------- 0 3.0 0.0 48 116
r 2.32584 0 2 tcp 1540 ------- 0 0.0 3.0 50 81
+ 2.32584 2 3 tcp 1540 ------- 0 0.0 3.0 50 81
- 2.32584 2 3 tcp 1540 ------- 0 0.0 3.0 50 81
r 2.33248 2 0 ack 40 ------- 0 3.0 0.0 48 116
+ 2.33248 0 2 tcp 1540 ------- 0 0.0 3.0 68 117
r 2.33584 2 3 tcp 1540 ------- 0 0.0 3.0 49 79
+ 2.33584 3 2 ack 40 ------- 0 3.0 0.0 49 118
- 2.33584 3 2 ack 40 ------- 0 3.0 0.0 49 118
- 2.34048 0 2 tcp 1540 ------- 0 0.0 3.0 52 85
r 2.34648 3 2 ack 40 ------- 0 3.0 0.0 49 118
+ 2.34648 2 0 ack 40 ------- 0 3.0 0.0 49 118
- 2.34648 2 0 ack 40 ------- 0 3.0 0.0 49 118
r 2.35048 0 2 tcp 1540 ------- 0 0.0 3.0 51 83
+ 2.35048 2 3 tcp 1540 ------- 0 0.0 3.0 51 83
- 2.35048 2 3 tcp 1540 ------- 0 0.0 3.0 51 83
r 2.35712 2 0 ack 40 ------- 0 3.0 0.0 49 118
+ 2.35712 0 2 tcp 1540 ------- 0 0.0 3.0 69 119
r 2.36048 2 3 tcp 1540 ------- 0 0.0 3.0 50 81
+ 2.36048 3 2 ack 40 ------- 0 3.0 0.0 50 120
- 2.36048 3 2 ack 40 ------- 0 3.0 0.0 50 120
- 2.36512 0 2 tcp 1540 ------- 0 0.0 3.0 53 87
r 2.37112 3 2 ack 40 ------- 0 3.0 0.0 50 120
+ 2.37112 2 0 ack 40 ------- 0 3.0 0.0 50 120
- 2.37112 2 0 ack 40 ------- 0 3.0 0.0 50 120
r 2.37512 0 2 tcp 1540 ------- 0 0.0 3.0 52 85
+ 2.37512 2 3 tcp 1540 ------- 0 0.0 3.0 52 85
- 2.37512 2 3 tcp 1540 ------- 0 0.0 3.0 52 85
r 2.38176 2 0 ack 40 ------- 0 3.0 0.0 50 120
+ 2.38176 0 2 tcp 1540 ------- 0 0.0 3.0 70 121
r 2.38512 2 3 tcp 1540 ------- 0 0.0 3.0 51 83
+ 2.38512 3 2 ack 40 ------- 0 3.0 0.0 51 122
- 2.38512 3 2 ack 40 ------- 0 3.0 0.0 51 122
- 2.38976 0 2 tcp 1540 ------- 0 0.0 3.0 54 89
r 2.39576 3 2 ack 40 ------- 0 3.0 0.0 51 122
+ 2.39576 2 0 ack 40 ------- 0 3.0 0.0 51 122
- 2.39576 2 0 ack 40 ------- 0 3.0 0.0 51 122
r 2.39976 0 2 tcp 1540 ------- 0 0.0 3.0 53 87
+ 2.39976 2 3 tcp 1540 ------- 0 0.0 3.0 53 87
- 2.39976 2 3 tcp 1540 ------- 0 0.0 3.0 53 87
r 2.4064 2 0 ack 40 ------- 0 3.0 0.0 51 122
+ 2.4064 0 2 tcp 1540 ------- 0 0.0 3.0 71 123
r 2.40976 2 3 tcp 1540 ------- 0 0.0 3.0 52 85
+ 2.40976 3 2 ack 40 ------- 0 3.0 0.0 52 124
- 2.40976 3 2 ack 40 ------- 0 3.0 0.0 52 124
- 2.4144 0 2 tcp 1540 ------- 0 0.0 3.0 55 91