+ 1 0 1 cbr 1000 ------- 0 0.0 2.0 0 0
- 1 0 1 cbr 1000 ------- 0 0.0 2.0 0 0
+ 1.008 0 1 cbr 1000 ------- 0 0.0 2.0 1 1
- 1.008 0 1 cbr 1000 ------- 0 0.0 2.0 1 1
r 1.01008 0 1 cbr 1000 ------- 0 0.0 2.0 0 0
+ 1.01008 1 2 cbr 1000 ------- 0 0.0 2.0 0 0
- 1.01008 1 2 cbr 1000 ------- 0 0.0 2.0 0 0
+ 1.016 0 1 cbr 1000 ------- 0 0.0 2.0 2 2
- 1.016 0 1 cbr 1000 ------- 0 0.0 2.0 2 2
r 1.01808 0 1 cbr 1000 ------- 0 0.0 2.0 1 1
+ 1.01808 1 2 cbr 1000 ------- 0 0.0 2.0 1 1
- 1.01808 1 2 cbr 1000 ------- 0 0.0 2.0 1 1
r 1.02016 1 2 cbr 1000 ------- 0 0.0 2.0 0 0
+ 1.024 0 1 cbr 1000 ------- 0 0.0 2.0 3 3
- 1.024 0 1 cbr 1000 ------- 0 0.0 2.0 3 3
r 1.02608 0 1 cbr 1000 ------- 0 0.0 2.0 2 2
+ 1.02608 1 2 cbr 1000 ------- 0 0.0 2.0 2 2
- 1.02608 1 2 cbr 1000 ------- 0 0.0 2.0 2 2
r 1.02816 1 2 cbr 1000 ------- 0 0.0 2.0 1 1
+ 1.032 0 1 cbr 1000 ------- 0 0.0 2.0 4 4
- 1.032 0 1 cbr 1000 ------- 0 0.0 2.0 4 4
r 1.03408 0 1 cbr 1000 ------- 0 0.0 2.0 3 3
+ 1.03408 1 2 cbr 1000 ------- 0 0.0 2.0 3 3
- 1.03408 1 2 cbr 1000 ------- 0 0.0 2.0 3 3
r 1.03616 1 2 cbr 1000 ------- 0 0.0 2.0 2 2
+ 1.04 0 1 cbr 1000 ------- 0 0.0 2.0 5 5
- 1.04 0 1 cbr 1000 ------- 0 0.0 2.0 5 5
r 1.04208 0 1 cbr 1000 ------- 0 0.0 2.0 4 4
+ 1.04208 1 2 cbr 1000 ------- 0 0.0 2.0 4 4
- 1.04208 1 2 cbr 1000 ------- 0 0.0 2.0 4 4
r 1.04416 1 2 cbr 1000 ------- 0 0.0 2.0 3 3
+ 1.048 0 1 cbr 1000 ------- 0 0.0 2.0 6 6
- 1.048 0 1 cbr 1000 ------- 0 0.0 2.0 6 6
r 1.05008 0 1 cbr 1000 ------- 0 0.0 2.0 5 5
+ 1.05008 1 2 cbr 1000 ------- 0 0.0 2.0 5 5
- 1.05008 1 2 cbr 1000 ------- 0 0.0 2.0 5 5
r 1.05216 1 2 cbr 1000 ------- 0 0.0 2.0 4 4
+ 1.056 0 1 cbr 1000 ------- 0 0.0 2.0 7 7
- 1.056 0 1 cbr 1000 ------- 0 0.0 2.0 7 7
r 1.05808 0 1 cbr 1000 ------- 0 0.0 2.0 6 6
+ 1.05808 1 2 cbr 1000 ------- 0 0.0 2.0 6 6
- 1.05808 1 2 cbr 1000 ------- 0 0.0 2.0 6 6
r 1.06016 1 2 cbr 1000 ------- 0 0.0 2.0 5 5
+ 1.064 0 1 cbr 1000 ------- 0 0.0 2.0 8 8
- 1.064 0 1 cbr 1000 ------- 0 0.0 2.0 8 8
r 1.06608 0 1 cbr 1000 ------- 0 0.0 2.0 7 7
+ 1.06608 1 2 cbr 1000 ------- 0 0.0 2.0 7 7
- 1.06608 1 2 cbr 1000 ------- 0 0.0 2.0 7 7
r 1.06816 1 2 cbr 1000 ------- 0 0.0 2.0 6 6
+ 1.072 0 1 cbr 1000 ------- 0 0.0 2.0 9 9
- 1.072 0 1 cbr 1000 ------- 0 0.0 2.0 9 9
r 1.07408 0 1 cbr 1000 ------- 0 0.0 2.0 8 8
+ 1.07408 1 2 cbr 1000 ------- 0 0.0 2.0 8 8
- 1.07408 1 2 cbr 1000 ------- 0 0.0 2.0 8 8
r 1.07616 1 2 cbr 1000 ------- 0 0.0 2.0 7 7
+ 1.08 0 1 cbr 1000 ------- 0 0.0 2.0 10 10
- 1.08 0 1 cbr 1000 ------- 0 0.0 2.0 10 10
r 1.08208 0 1 cbr 1000 ------- 0 0.0 2.0 9 9
+ 1.08208 1 2 cbr 1000 ------- 0 0.0 2.0 9 9
- 1.08208 1 2 cbr 1000 ------- 0 0.0 2.0 9 9
r 1.08416 1 2 cbr 1000 ------- 0 0.0 2.0 8 8
+ 1.088 0 1 cbr 1000 ------- 0 0.0 2.0 11 11
- 1.088 0 1 cbr 1000 ------- 0 0.0 2.0 11 11
r 1.09008 0 1 cbr 1000 ------- 0 0.0 2.0 10 10
+ 1.09008 1 2 cbr 1000 ------- 0 0.0 2.0 10 10
- 1.09008 1 2 cbr 1000 ------- 0 0.0 2.0 10 10
r 1.09216 1 2 cbr 1000 ------- 0 0.0 2.0 9 9
+ 1.096 0 1 cbr 1000 ------- 0 0.0 2.0 12 12
- 1.096 0 1 cbr 1000 ------- 0 0.0 2.0 12 12
r 1.09808 0 1 cbr 1000 ------- 0 0.0 2.0 11 11
+ 1.09808 1 2 cbr 1000 ------- 0 0.0 2.0 11 11
- 1.09808 1 2 cbr 1000 ------- 0 0.0 2.0 11 11
r 1.10016 1 2 cbr 1000 ------- 0 0.0 2.0 10 10
+ 1.104 0 1 cbr 1000 ------- 0 0.0 2.0 13 13
- 1.104 0 1 cbr 1000 ------- 0 0.0 2.0 13 13
r 1.10608 0 1 cbr 1000 ------- 0 0.0 2.0 12 12
+ 1.10608 1 2 cbr 1000 ------- 0 0.0 2.0 12 12
- 1.10608 1 2 cbr 1000 ------- 0 0.0 2.0 12 12
r 1.10816 1 2 cbr 1000 ------- 0 0.0 2.0 11 11
+ 1.112 0 1 cbr 1000 ------- 0 0.0 2.0 14 14
- 1.112 0 1 cbr 1000 ------- 0 0.0 2.0 14 14
r 1.11408 0 1 cbr 1000 ------- 0 0.0 2.0 13 13
+ 1.11408 1 2 cbr 1000 ------- 0 0.0 2.0 13 13
- 1.11408 1 2 cbr 1000 ------- 0 0.0 2.0 13 13
r 1.11616 1 2 cbr 1000 ------- 0 0.0 2.0 12 12
+ 1.12 0 1 cbr 1000 ------- 0 0.0 2.0 15 15
- 1.12 0 1 cbr 1000 ------- 0 0.0 2.0 15 15
r 1.12208 0 1 cbr 1000 ------- 0 0.0 2.0 14 14
+ 1.12208 1 2 cbr 1000 ------- 0 0.0 2.0 14 14
- 1.12208 1 2 cbr 1000 ------- 0 0.0 2.0 14 14
r 1.12416 1 2 cbr 1000 ------- 0 0.0 2.0 13 13
+ 1.128 0 1 cbr 1000 ------- 0 0.0 2.0 16 16
- 1.128 0 1 cbr 1000 ------- 0 0.0 2.0 16 16
r 1.13008 0 1 cbr 1000 ------- 0 0.0 2.0 15 15
+ 1.13008 1 2 cbr 1000 ------- 0 0.0 2.0 15 15
- 1.13008 1 2 cbr 1000 ------- 0 0.0 2.0 15 15
r 1.13216 1 2 cbr 1000 ------- 0 0.0 2.0 14 14
+ 1.136 0 1 cbr 1000 ------- 0 0.0 2.0 17 17
- 1.136 0 1 cbr 1000 ------- 0 0.0 2.0 17 17
r 1.13808 0 1 cbr 1000 ------- 0 0.0 2.0 16 16
+ 1.13808 1 2 cbr 1000 ------- 0 0.0 2.0 16 16
- 1.13808 1 2 cbr 1000 ------- 0 0.0 2.0 16 16
r 1.14016 1 2 cbr 1000 ------- 0 0.0 2.0 15 15
+ 1.144 0 1 cbr 1000 ------- 0 0.0 2.0 18 18
- 1.144 0 1 cbr 1000 ------- 0 0.0 2.0 18 18
r 1.14608 0 1 cbr 1000 ------- 0 0.0 2.0 17 17
+ 1.14608 1 2 cbr 1000 ------- 0 0.0 2.0 17 17
- 1.14608 1 2 cbr 1000 ------- 0 0.0 2.0 17 17
r 1.14816 1 2 cbr 1000 ------- 0 0.0 2.0 16 16
+ 1.152 0 1 cbr 1000 ------- 0 0.0 2.0 19 19
- 1.152 0 1 cbr 1000 ------- 0 0.0 2.0 19 19
r 1.15408 0 1 cbr 1000 ------- 0 0.0 2.0 18 18
+ 1.15408 1 2 cbr 1000 ------- 0 0.0 2.0 18 18
- 1.15408 1 2 cbr 1000 ------- 0 0.0 2.0 18 18
r 1.15616 1 2 cbr 1000 ------- 0 0.0 2.0 17 17
+ 1.16 0 1 cbr 1000 ------- 0 0.0 2.0 20 20
- 1.16 0 1 cbr 1000 ------- 0 0.0 2.0 20 20
r 1.16208 0 1 cbr 1000 ------- 0 0.0 2.0 19 19
+ 1.16208 1 2 cbr 1000 ------- 0 0.0 2.0 19 19
- 1.16208 1 2 cbr 1000 ------- 0 0.0 2.0 19 19
r 1.16416 1 2 cbr 1000 ------- 0 0.0 2.0 18 18
+ 1.168 0 1 cbr 1000 ------- 0 0.0 2.0 21 21
- 1.168 0 1 cbr 1000 ------- 0 0.0 2.0 21 21
r 1.17008 0 1 cbr 1000 ------- 0 0.0 2.0 20 20
+ 1.17008 1 2 cbr 1000 ------- 0 0.0 2.0 20 20
- 1.17008 1 2 cbr 1000 ------- 0 0.0 2.0 20 20
r 1.17216 1 2 cbr 1000 ------- 0 0.0 2.0 19 19
+ 1.176 0 1 cbr 1000 ------- 0 0.0 2.0 22 22
- 1.176 0 1 cbr 1000 ------- 0 0.0 2.0 22 22
r 1.17808 0 1 cbr 1000 ------- 0 0.0 2.0 21 21
+ 1.17808 1 2 cbr 1000 ------- 0 0.0 2.0 21 21
- 1.17808 1 2 cbr 1000 ------- 0 0.0 2.0 21 21
r 1.18016 1 2 cbr 1000 ------- 0 0.0 2.0 20 20
+ 1.184 0 1 cbr 1000 ------- 0 0.0 2.0 23 23
- 1.184 0 1 cbr 1000 ------- 0 0.0 2.0 23 23
r 1.18608 0 1 cbr 1000 ------- 0 0.0 2.0 22 22
+ 1.18608 1 2 cbr 1000 ------- 0 0.0 2.0 22 22
- 1.18608 1 2 cbr 1000 ------- 0 0.0 2.0 22 22
r 1.18816 1 2 cbr 1000 ------- 0 0.0 2.0 21 21
+ 1.192 0 1 cbr 1000 ------- 0 0.0 2.0 24 24
- 1.192 0 1 cbr 1000 ------- 0 0.0 2.0 24 24
r 1.19408 0 1 cbr 1000 ------- 0 0.0 2.0 23 23
+ 1.19408 1 2 cbr 1000 ------- 0 0.0 2.0 23 23
- 1.19408 1 2 cbr 1000 ------- 0 0.0 2.0 23 23
r 1.19616 1 2 cbr 1000 ------- 0 0.0 2.0 22 22
+ 1.2 0 1 cbr 1000 ------- 0 0.0 2.0 25 25
- 1.2 0 1 cbr 1000 ------- 0 0.0 2.0 25 25
r 1.20208 0 1 cbr 1000 ------- 0 0.0 2.0 24 24
+ 1.20208 1 2 cbr 1000 ------- 0 0.0 2.0 24 24
- 1.20208 1 2 cbr 1000 ------- 0 0.0 2.0 24 24
r 1.20416 1 2 cbr 1000 ------- 0 0.0 2.0 23 23
+ 1.208 0 1 cbr 1000 ------- 0 0.0 2.0 26 26
- 1.208 0 1 cbr 1000 ------- 0 0.0 2.0 26 26
r 1.21008 0 1 cbr 1000 ------- 0 0.0 2.0 25 25
+ 1.21008 1 2 cbr 1000 ------- 0 0.0 2.0 25 25
- 1.21008 1 2 cbr 1000 ------- 0 0.0 2.0 25 25
r 1.21216 1 2 cbr 1000 ------- 0 0.0 2.0 24 24
+ 1.216 0 1 cbr 1000 ------- 0 0.0 2.0 27 27
- 1.216 0 1 cbr 1000 ------- 0 0.0 2.0 27 27
r 1.21808 0 1 cbr 1000 ------- 0 0.0 2.0 26 26
+ 1.21808 1 2 cbr 1000 ------- 0 0.0 2.0 26 26
- 1.21808 1 2 cbr 1000 ------- 0 0.0 2.0 26 26
r 1.22016 1 2 cbr 1000 ------- 0 0.0 2.0 25 25
+ 1.224 0 1 cbr 1000 ------- 0 0.0 2.0 28 28
- 1.224 0 1 cbr 1000 ------- 0 0.0 2.0 28 28
r 1.22608 0 1 cbr 1000 ------- 0 0.0 2.0 27 27
+ 1.22608 1 2 cbr 1000 ------- 0 0.0 2.0 27 27
- 1.22608 1 2 cbr 1000 ------- 0 0.0 2.0 27 27
r 1.22816 1 2 cbr 1000 ------- 0 0.0 2.0 26 26
+ 1.232 0 1 cbr 1000 ------- 0 0.0 2.0 29 29
- 1.232 0 1 cbr 1000 ------- 0 0.0 2.0 29 29
r 1.23408 0 1 cbr 1000 ------- 0 0.0 2.0 28 28
+ 1.23408 1 2 cbr 1000 ------- 0 0.0 2.0 28 28
- 1.23408 1 2 cbr 1000 ------- 0 0.0 2.0 28 28
r 1.23616 1 2 cbr 1000 ------- 0 0.0 2.0 27 27
+ 1.24 0 1 cbr 1000 ------- 0 0.0 2.0 30 30
- 1.24 0 1 cbr 1000 ------- 0 0.0 2.0 30 30
r 1.24208 0 1 cbr 1000 ------- 0 0.0 2.0 29 29
+ 1.24208 1 2 cbr 1000 ------- 0 0.0 2.0 29 29
- 1.24208 1 2 cbr 1000 ------- 0 0.0 2.0 29 29
r 1.24416 1 2 cbr 1000 ------- 0 0.0 2.0 28 28
+ 1.248 0 1 cbr 1000 ------- 0 0.0 2.0 31 31
- 1.248 0 1 cbr 1000 ------- 0 0.0 2.0 31 31
r 1.25008 0 1 cbr 1000 ------- 0 0.0 2.0 30 30
+ 1.25008 1 2 cbr 1000 ------- 0 0.0 2.0 30 30
- 1.25008 1 2 cbr 1000 ------- 0 0.0 2.0 30 30
r 1.25216 1 2 cbr 1000 ------- 0 0.0 2.0 29 29
+ 1.256 0 1 cbr 1000 ------- 0 0.0 2.0 32 32
- 1.256 0 1 cbr 1000 ------- 0 0.0 2.0 32 32
r 1.25808 0 1 cbr 1000 ------- 0 0.0 2.0 31 31
+ 1.25808 1 2 cbr 1000 ------- 0 0.0 2.0 31 31
- 1.25808 1 2 cbr 1000 ------- 0 0.0 2.0 31 31
r 1.26016 1 2 cbr 1000 ------- 0 0.0 2.0 30 30
+ 1.264 0 1 cbr 1000 ------- 0 0.0 2.0 33 33
- 1.264 0 1 cbr 1000 ------- 0 0.0 2.0 33 33
r 1.26608 0 1 cbr 1000 ------- 0 0.0 2.0 32 32
+ 1.26608 1 2 cbr 1000 ------- 0 0.0 2.0 32 32
- 1.26608 1 2 cbr 1000 ------- 0 0.0 2.0 32 32
r 1.26816 1 2 cbr 1000 ------- 0 0.0 2.0 31 31
+ 1.272 0 1 cbr 1000 ------- 0 0.0 2.0 34 34
- 1.272 0 1 cbr 1000 ------- 0 0.0 2.0 34 34
r 1.27408 0 1 cbr 1000 ------- 0 0.0 2.0 33 33
+ 1.27408 1 2 cbr 1000 ------- 0 0.0 2.0 33 33
- 1.27408 1 2 cbr 1000 ------- 0 0.0 2.0 33 33
r 1.27616 1 2 cbr 1000 ------- 0 0.0 2.0 32 32
+ 1.28 0 1 cbr 1000 ------- 0 0.0 2.0 35 35
- 1.28 0 1 cbr 1000 ------- 0 0.0 2.0 35 35
r 1.28208 0 1 cbr 1000 ------- 0 0.0 2.0 34 34
+ 1.28208 1 2 cbr 1000 ------- 0 0.0 2.0 34 34
- 1.28208 1 2 cbr 1000 ------- 0 0.0 2.0 34 34
r 1.28416 1 2 cbr 1000 ------- 0 0.0 2.0 33 33
+ 1.288 0 1 cbr 1000 ------- 0 0.0 2.0 36 36
- 1.288 0 1 cbr 1000 ------- 0 0.0 2.0 36 36
r 1.29008 0 1 cbr 1000 ------- 0 0.0 2.0 35 35
+ 1.29008 1 2 cbr 1000 ------- 0 0.0 2.0 35 35
- 1.29008 1 2 cbr 1000 ------- 0 0.0 2.0 35 35
r 1.29216 1 2 cbr 1000 ------- 0 0.0 2.0 34 34
+ 1.296 0 1 cbr 1000 ------- 0 0.0 2.0 37 37
- 1.296 0 1 cbr 1000 ------- 0 0.0 2.0 37 37
r 1.29808 0 1 cbr 1000 ------- 0 0.0 2.0 36 36
+ 1.29808 1 2 cbr 1000 ------- 0 0.0 2.0 36 36
- 1.29808 1 2 cbr 1000 ------- 0 0.0 2.0 36 36
r 1.30016 1 2 cbr 1000 ------- 0 0.0 2.0 35 35
+ 1.304 0 1 cbr 1000 ------- 0 0.0 2.0 38 38
- 1.304 0 1 cbr 1000 ------- 0 0.0 2.0 38 38
r 1.30608 0 1 cbr 1000 ------- 0 0.0 2.0 37 37
+ 1.30608 1 2 cbr 1000 ------- 0 0.0 2.0 37 37
- 1.30608 1 2 cbr 1000 ------- 0 0.0 2.0 37 37
r 1.30816 1 2 cbr 1000 ------- 0 0.0 2.0 36 36
+ 1.312 0 1 cbr 1000 ------- 0 0.0 2.0 39 39
- 1.312 0 1 cbr 1000 ------- 0 0.0 2.0 39 39
r 1.31408 0 1 cbr 1000 ------- 0 0.0 2.0 38 38
+ 1.31408 1 2 cbr 1000 ------- 0 0.0 2.0 38 38
- 1.31408 1 2 cbr 1000 ------- 0 0.0 2.0 38 38
r 1.31616 1 2 cbr 1000 ------- 0 0.0 2.0 37 37
+ 1.32 0 1 cbr 1000 ------- 0 0.0 2.0 40 40
- 1.32 0 1 cbr 1000 ------- 0 0.0 2.0 40 40
r 1.32208 0 1 cbr 1000 ------- 0 0.0 2.0 39 39
+ 1.32208 1 2 cbr 1000 ------- 0 0.0 2.0 39 39
- 1.32208 1 2 cbr 1000 ------- 0 0.0 2.0 39 39
r 1.32416 1 2 cbr 1000 ------- 0 0.0 2.0 38 38
+ 1.328 0 1 cbr 1000 ------- 0 0.0 2.0 41 41
- 1.328 0 1 cbr 1000 ------- 0 0.0 2.0 41 41
r 1.33008 0 1 cbr 1000 ------- 0 0.0 2.0 40 40
+ 1.33008 1 2 cbr 1000 ------- 0 0.0 2.0 40 40
- 1.33008 1 2 cbr 1000 ------- 0 0.0 2.0 40 40
r 1.33216 1 2 cbr 1000 ------- 0 0.0 2.0 39 39
+ 1.336 0 1 cbr 1000 ------- 0 0.0 2.0 42 42
- 1.336 0 1 cbr 1000 ------- 0 0.0 2.0 42 42
r 1.33808 0 1 cbr 1000 ------- 0 0.0 2.0 41 41
+ 1.33808 1 2 cbr 1000 ------- 0 0.0 2.0 41 41
- 1.33808 1 2 cbr 1000 ------- 0 0.0 2.0 41 41
r 1.34016 1 2 cbr 1000 ------- 0 0.0 2.0 40 40
+ 1.344 0 1 cbr 1000 ------- 0 0.0 2.0 43 43
- 1.344 0 1 cbr 1000 ------- 0 0.0 2.0 43 43
r 1.34608 0 1 cbr 1000 ------- 0 0.0 2.0 42 42
+ 1.34608 1 2 cbr 1000 ------- 0 0.0 2.0 42 42
- 1.34608 1 2 cbr 1000 ------- 0 0.0 2.0 42 42
r 1.34816 1 2 cbr 1000 ------- 0 0.0 2.0 41 41
+ 1.352 0 1 cbr 1000 ------- 0 0.0 2.0 44 44
- 1.352 0 1 cbr 1000 ------- 0 0.0 2.0 44 44
r 1.35408 0 1 cbr 1000 ------- 0 0.0 2.0 43 43
+ 1.35408 1 2 cbr 1000 ------- 0 0.0 2.0 43 43
- 1.35408 1 2 cbr 1000 ------- 0 0.0 2.0 43 43
r 1.35616 1 2 cbr 1000 ------- 0 0.0 2.0 42 42
+ 1.36 0 1 cbr 1000 ------- 0 0.0 2.0 45 45
- 1.36 0 1 cbr 1000 ------- 0 0.0 2.0 45 45
r 1.36208 0 1 cbr 1000 ------- 0 0.0 2.0 44 44
+ 1.36208 1 2 cbr 1000 ------- 0 0.0 2.0 44 44
- 1.36208 1 2 cbr 1000 ------- 0 0.0 2.0 44 44
r 1.36416 1 2 cbr 1000 ------- 0 0.0 2.0 43 43
+ 1.368 0 1 cbr 1000 ------- 0 0.0 2.0 46 46
- 1.368 0 1 cbr 1000 ------- 0 0.0 2.0 46 46
r 1.37008 0 1 cbr 1000 ------- 0 0.0 2.0 45 45
+ 1.37008 1 2 cbr 1000 ------- 0 0.0 2.0 45 45
- 1.37008 1 2 cbr 1000 ------- 0 0.0 2.0 45 45
r 1.37216 1 2 cbr 1000 ------- 0 0.0 2.0 44 44
+ 1.376 0 1 cbr 1000 ------- 0 0.0 2.0 47 47
- 1.376 0 1 cbr 1000 ------- 0 0.0 2.0 47 47
r 1.37808 0 1 cbr 1000 ------- 0 0.0 2.0 46 46
+ 1.37808 1 2 cbr 1000 ------- 0 0.0 2.0 46 46
- 1.37808 1 2 cbr 1000 ------- 0 0.0 2.0 46 46
r 1.38016 1 2 cbr 1000 ------- 0 0.0 2.0 45 45
+ 1.384 0 1 cbr 1000 ------- 0 0.0 2.0 48 48
- 1.384 0 1 cbr 1000 ------- 0 0.0 2.0 48 48
r 1.38608 0 1 cbr 1000 ------- 0 0.0 2.0 47 47
+ 1.38608 1 2 cbr 1000 ------- 0 0.0 2.0 47 47
- 1.38608 1 2 cbr 1000 ------- 0 0.0 2.0 47 47
r 1.38816 1 2 cbr 1000 ------- 0 0.0 2.0 46 46
+ 1.392 0 1 cbr 1000 ------- 0 0.0 2.0 49 49
- 1.392 0 1 cbr 1000 ------- 0 0.0 2.0 49 49
r 1.39408 0 1 cbr 1000 ------- 0 0.0 2.0 48 48
+ 1.39408 1 2 cbr 1000 ------- 0 0.0 2.0 48 48
- 1.39408 1 2 cbr 1000 ------- 0 0.0 2.0 48 48
r 1.39616 1 2 cbr 1000 ------- 0 0.0 2.0 47 47
+ 1.4 0 1 cbr 1000 ------- 0 0.0 2.0 50 50
- 1.4 0 1 cbr 1000 ------- 0 0.0 2.0 50 50
r 1.40208 0 1 cbr 1000 ------- 0 0.0 2.0 49 49
+ 1.40208 1 2 cbr 1000 ------- 0 0.0 2.0 49 49
- 1.40208 1 2 cbr 1000 ------- 0 0.0 2.0 49 49
r 1.40416 1 2 cbr 1000 ------- 0 0.0 2.0 48 48
+ 1.408 0 1 cbr 1000 ------- 0 0.0 2.0 51 51
- 1.408 0 1 cbr 1000 ------- 0 0.0 2.0 51 51
r 1.41008 0 1 cbr 1000 ------- 0 0.0 2.0 50 50
+ 1.41008 1 2 cbr 1000 ------- 0 0.0 2.0 50 50
- 1.41008 1 2 cbr 1000 ------- 0 0.0 2.0 50 50
r 1.41216 1 2 cbr 1000 ------- 0 0.0 2.0 49 49
+ 1.416 0 1 cbr 1000 ------- 0 0.0 2.0 52 52
- 1.416 0 1 cbr 1000 ------- 0 0.0 2.0 52 52
r 1.41808 0 1 cbr 1000 ------- 0 0.0 2.0 51 51
+ 1.41808 1 2 cbr 1000 ------- 0 0.0 2.0 51 51
- 1.41808 1 2 cbr 1000 ------- 0 0.0 2.0 51 51
r 1.42016 1 2 cbr 1000 ------- 0 0.0 2.0 50 50
+ 1.424 0 1 cbr 1000 ------- 0 0.0 2.0 53 53
- 1.424 0 1 cbr 1000 ------- 0 0.0 2.0 53 53
r 1.42608 0 1 cbr 1000 ------- 0 0.0 2.0 52 52
+ 1.42608 1 2 cbr 1000 ------- 0 0.0 2.0 52 52
- 1.42608 1 2 cbr 1000 ------- 0 0.0 2.0 52 52
r 1.42816 1 2 cbr 1000 ------- 0 0.0 2.0 51 51
+ 1.432 0 1 cbr 1000 ------- 0 0.0 2.0 54 54
- 1.432 0 1 cbr 1000 ------- 0 0.0 2.0 54 54
r 1.43408 0 1 cbr 1000 ------- 0 0.0 2.0 53 53
+ 1.43408 1 2 cbr 1000 ------- 0 0.0 2.0 53 53
- 1.43408 1 2 cbr 1000 ------- 0 0.0 2.0 53 53
r 1.43616 1 2 cbr 1000 ------- 0 0.0 2.0 52 52
+ 1.44 0 1 cbr 1000 ------- 0 0.0 2.0 55 55
- 1.44 0 1 cbr 1000 ------- 0 0.0 2.0 55 55
r 1.44208 0 1 cbr 1000 ------- 0 0.0 2.0 54 54
+ 1.44208 1 2 cbr 1000 ------- 0 0.0 2.0 54 54
- 1.44208 1 2 cbr 1000 ------- 0 0.0 2.0 54 54
r 1.44416 1 2 cbr 1000 ------- 0 0.0 2.0 53 53
+ 1.448 0 1 cbr 1000 ------- 0 0.0 2.0 56 56
- 1.448 0 1 cbr 1000 ------- 0 0.0 2.0 56 56
r 1.45008 0 1 cbr 1000 ------- 0 0.0 2.0 55 55
+ 1.45008 1 2 cbr 1000 ------- 0 0.0 2.0 55 55
- 1.45008 1 2 cbr 1000 ------- 0 0.0 2.0 55 55
r 1.45216 1 2 cbr 1000 ------- 0 0.0 2.0 54 54
+ 1.456 0 1 cbr 1000 ------- 0 0.0 2.0 57 57
- 1.456 0 1 cbr 1000 ------- 0 0.0 2.0 57 57
r 1.45808 0 1 cbr 1000 ------- 0 0.0 2.0 56 56
+ 1.45808 1 2 cbr 1000 ------- 0 0.0 2.0 56 56
- 1.45808 1 2 cbr 1000 ------- 0 0.0 2.0 56 56
r 1.46016 1 2 cbr 1000 ------- 0 0.0 2.0 55 55
+ 1.464 0 1 cbr 1000 ------- 0 0.0 2.0 58 58
- 1.464 0 1 cbr 1000 ------- 0 0.0 2.0 58 58
r 1.46608 0 1 cbr 1000 ------- 0 0.0 2.0 57 57
+ 1.46608 1 2 cbr 1000 ------- 0 0.0 2.0 57 57
- 1.46608 1 2 cbr 1000 ------- 0 0.0 2.0 57 57
r 1.46816 1 2 cbr 1000 ------- 0 0.0 2.0 56 56
+ 1.472 0 1 cbr 1000 ------- 0 0.0 2.0 59 59
- 1.472 0 1 cbr 1000 ------- 0 0.0 2.0 59 59
r 1.47408 0 1 cbr 1000 ------- 0 0.0 2.0 58 58
+ 1.47408 1 2 cbr 1000 ------- 0 0.0 2.0 58 58
- 1.47408 1 2 cbr 1000 ------- 0 0.0 2.0 58 58
r 1.47616 1 2 cbr 1000 ------- 0 0.0 2.0 57 57
+ 1.48 0 1 cbr 1000 ------- 0 0.0 2.0 60 60
- 1.48 0 1 cbr 1000 ------- 0 0.0 2.0 60 60
r 1.48208 0 1 cbr 1000 ------- 0 0.0 2.0 59 59
+ 1.48208 1 2 cbr 1000 ------- 0 0.0 2.0 59 59
- 1.48208 1 2 cbr 1000 ------- 0 0.0 2.0 59 59
r 1.48416 1 2 cbr 1000 ------- 0 0.0 2.0 58 58
+ 1.488 0 1 cbr 1000 ------- 0 0.0 2.0 61 61
- 1.488 0 1 cbr 1000 ------- 0 0.0 2.0 61 61
r 1.49008 0 1 cbr 1000 ------- 0 0.0 2.0 60 60
+ 1.49008 1 2 cbr 1000 ------- 0 0.0 2.0 60 60
- 1.49008 1 2 cbr 1000 ------- 0 0.0 2.0 60 60
r 1.49216 1 2 cbr 1000 ------- 0 0.0 2.0 59 59
+ 1.496 0 1 cbr 1000 ------- 0 0.0 2.0 62 62
- 1.496 0 1 cbr 1000 ------- 0 0.0 2.0 62 62
r 1.49808 0 1 cbr 1000 ------- 0 0.0 2.0 61 61
+ 1.49808 1 2 cbr 1000 ------- 0 0.0 2.0 61 61
- 1.49808 1 2 cbr 1000 ------- 0 0.0 2.0 61 61
r 1.50016 1 2 cbr 1000 ------- 0 0.0 2.0 60 60
+ 1.504 0 1 cbr 1000 ------- 0 0.0 2.0 63 63
- 1.504 0 1 cbr 1000 ------- 0 0.0 2.0 63 63
r 1.50608 0 1 cbr 1000 ------- 0 0.0 2.0 62 62
+ 1.50608 1 2 cbr 1000 ------- 0 0.0 2.0 62 62
- 1.50608 1 2 cbr 1000 ------- 0 0.0 2.0 62 62
r 1.50816 1 2 cbr 1000 ------- 0 0.0 2.0 61 61
+ 1.512 0 1 cbr 1000 ------- 0 0.0 2.0 64 64
- 1.512 0 1 cbr 1000 ------- 0 0.0 2.0 64 64
r 1.51408 0 1 cbr 1000 ------- 0 0.0 2.0 63 63
+ 1.51408 1 2 cbr 1000 ------- 0 0.0 2.0 63 63
- 1.51408 1 2 cbr 1000 ------- 0 0.0 2.0 63 63
r 1.51616 1 2 cbr 1000 ------- 0 0.0 2.0 62 62
+ 1.52 0 1 cbr 1000 ------- 0 0.0 2.0 65 65
- 1.52 0 1 cbr 1000 ------- 0 0.0 2.0 65 65
r 1.52208 0 1 cbr 1000 ------- 0 0.0 2.0 64 64
+ 1.52208 1 2 cbr 1000 ------- 0 0.0 2.0 64 64
- 1.52208 1 2 cbr 1000 ------- 0 0.0 2.0 64 64
r 1.52416 1 2 cbr 1000 ------- 0 0.0 2.0 63 63
+ 1.528 0 1 cbr 1000 ------- 0 0.0 2.0 66 66
- 1.528 0 1 cbr 1000 ------- 0 0.0 2.0 66 66
r 1.53008 0 1 cbr 1000 ------- 0 0.0 2.0 65 65
+ 1.53008 1 2 cbr 1000 ------- 0 0.0 2.0 65 65
- 1.53008 1 2 cbr 1000 ------- 0 0.0 2.0 65 65
r 1.53216 1 2 cbr 1000 ------- 0 0.0 2.0 64 64
+ 1.536 0 1 cbr 1000 ------- 0 0.0 2.0 67 67
- 1.536 0 1 cbr 1000 ------- 0 0.0 2.0 67 67
r 1.53808 0 1 cbr 1000 ------- 0 0.0 2.0 66 66
+ 1.53808 1 2 cbr 1000 ------- 0 0.0 2.0 66 66
- 1.53808 1 2 cbr 1000 ------- 0 0.0 2.0 66 66
r 1.54016 1 2 cbr 1000 ------- 0 0.0 2.0 65 65
+ 1.544 0 1 cbr 1000 ------- 0 0.0 2.0 68 68
- 1.544 0 1 cbr 1000 ------- 0 0.0 2.0 68 68
r 1.54608 0 1 cbr 1000 ------- 0 0.0 2.0 67 67
+ 1.54608 1 2 cbr 1000 ------- 0 0.0 2.0 67 67
- 1.54608 1 2 cbr 1000 ------- 0 0.0 2.0 67 67
r 1.54816 1 2 cbr 1000 ------- 0 0.0 2.0 66 66
+ 1.552 0 1 cbr 1000 ------- 0 0.0 2.0 69 69
- 1.552 0 1 cbr 1000 ------- 0 0.0 2.0 69 69
r 1.55408 0 1 cbr 1000 ------- 0 0.0 2.0 68 68
+ 1.55408 1 2 cbr 1000 ------- 0 0.0 2.0 68 68
- 1.55408 1 2 cbr 1000 ------- 0 0.0 2.0 68 68
r 1.55616 1 2 cbr 1000 ------- 0 0.0 2.0 67 67
+ 1.56 0 1 cbr 1000 ------- 0 0.0 2.0 70 70
- 1.56 0 1 cbr 1000 ------- 0 0.0 2.0 70 70
r 1.56208 0 1 cbr 1000 ------- 0 0.0 2.0 69 69
+ 1.56208 1 2 cbr 1000 ------- 0 0.0 2.0 69 69
- 1.56208 1 2 cbr 1000 ------- 0 0.0 2.0 69 69
r 1.56416 1 2 cbr 1000 ------- 0 0.0 2.0 68 68
+ 1.568 0 1 cbr 1000 ------- 0 0.0 2.0 71 71
- 1.568 0 1 cbr 1000 ------- 0 0.0 2.0 71 71
r 1.57008 0 1 cbr 1000 ------- 0 0.0 2.0 70 70
+ 1.57008 1 2 cbr 1000 ------- 0 0.0 2.0 70 70
- 1.57008 1 2 cbr 1000 ------- 0 0.0 2.0 70 70
r 1.57216 1 2 cbr 1000 ------- 0 0.0 2.0 69 69
+ 1.576 0 1 cbr 1000 ------- 0 0.0 2.0 72 72
- 1.576 0 1 cbr 1000 ------- 0 0.0 2.0 72 72
r 1.57808 0 1 cbr 1000 ------- 0 0.0 2.0 71 71
+ 1.57808 1 2 cbr 1000 ------- 0 0.0 2.0 71 71
- 1.57808 1 2 cbr 1000 ------- 0 0.0 2.0 71 71
r 1.58016 1 2 cbr 1000 ------- 0 0.0 2.0 70 70
+ 1.584 0 1 cbr 1000 ------- 0 0.0 2.0 73 73
- 1.584 0 1 cbr 1000 ------- 0 0.0 2.0 73 73
r 1.58608 0 1 cbr 1000 ------- 0 0.0 2.0 72 72
+ 1.58608 1 2 cbr 1000 ------- 0 0.0 2.0 72 72
- 1.58608 1 2 cbr 1000 ------- 0 0.0 2.0 72 72
r 1.58816 1 2 cbr 1000 ------- 0 0.0 2.0 71 71
+ 1.592 0 1 cbr 1000 ------- 0 0.0 2.0 74 74
- 1.592 0 1 cbr 1000 ------- 0 0.0 2.0 74 74
r 1.59408 0 1 cbr 1000 ------- 0 0.0 2.0 73 73
+ 1.59408 1 2 cbr 1000 ------- 0 0.0 2.0 73 73
- 1.59408 1 2 cbr 1000 ------- 0 0.0 2.0 73 73
r 1.59616 1 2 cbr 1000 ------- 0 0.0 2.0 72 72
+ 1.6 0 1 cbr 1000 ------- 0 0.0 2.0 75 75
- 1.6 0 1 cbr 1000 ------- 0 0.0 2.0 75 75
r 1.60208 0 1 cbr 1000 ------- 0 0.0 2.0 74 74
+ 1.60208 1 2 cbr 1000 ------- 0 0.0 2.0 74 74
- 1.60208 1 2 cbr 1000 ------- 0 0.0 2.0 74 74
r 1.60416 1 2 cbr 1000 ------- 0 0.0 2.0 73 73
+ 1.608 0 1 cbr 1000 ------- 0 0.0 2.0 76 76
- 1.608 0 1 cbr 1000 ------- 0 0.0 2.0 76 76
r 1.61008 0 1 cbr 1000 ------- 0 0.0 2.0 75 75
+ 1.61008 1 2 cbr 1000 ------- 0 0.0 2.0 75 75
- 1.61008 1 2 cbr 1000 ------- 0 0.0 2.0 75 75
r 1.61216 1 2 cbr 1000 ------- 0 0.0 2.0 74 74
+ 1.616 0 1 cbr 1000 ------- 0 0.0 2.0 77 77
- 1.616 0 1 cbr 1000 ------- 0 0.0 2.0 77 77
r 1.61808 0 1 cbr 1000 ------- 0 0.0 2.0 76 76
+ 1.61808 1 2 cbr 1000 ------- 0 0.0 2.0 76 76
- 1.61808 1 2 cbr 1000 ------- 0 0.0 2.0 76 76
r 1.62016 1 2 cbr 1000 ------- 0 0.0 2.0 75 75
+ 1.624 0 1 cbr 1000 ------- 0 0.0 2.0 78 78
- 1.624 0 1 cbr 1000 ------- 0 0.0 2.0 78 78
r 1.62608 0 1 cbr 1000 ------- 0 0.0 2.0 77 77
+ 1.62608 1 2 cbr 1000 ------- 0 0.0 2.0 77 77
- 1.62608 1 2 cbr 1000 ------- 0 0.0 2.0 77 77
r 1.62816 1 2 cbr 1000 ------- 0 0.0 2.0 76 76
+ 1.632 0 1 cbr 1000 ------- 0 0.0 2.0 79 79
- 1.632 0 1 cbr 1000 ------- 0 0.0 2.0 79 79
r 1.63408 0 1 cbr 1000 ------- 0 0.0 2.0 78 78
+ 1.63408 1 2 cbr 1000 ------- 0 0.0 2.0 78 78
- 1.63408 1 2 cbr 1000 ------- 0 0.0 2.0 78 78
r 1.63616 1 2 cbr 1000 ------- 0 0.0 2.0 77 77
+ 1.64 0 1 cbr 1000 ------- 0 0.0 2.0 80 80
- 1.64 0 1 cbr 1000 ------- 0 0.0 2.0 80 80
r 1.64208 0 1 cbr 1000 ------- 0 0.0 2.0 79 79
+ 1.64208 1 2 cbr 1000 ------- 0 0.0 2.0 79 79
- 1.64208 1 2 cbr 1000 ------- 0 0.0 2.0 79 79
r 1.64416 1 2 cbr 1000 ------- 0 0.0 2.0 78 78
+ 1.648 0 1 cbr 1000 ------- 0 0.0 2.0 81 81
- 1.648 0 1 cbr 1000 ------- 0 0.0 2.0 81 81
r 1.65008 0 1 cbr 1000 ------- 0 0.0 2.0 80 80
+ 1.65008 1 2 cbr 1000 ------- 0 0.0 2.0 80 80
- 1.65008 1 2 cbr 1000 ------- 0 0.0 2.0 80 80
r 1.65216 1 2 cbr 1000 ------- 0 0.0 2.0 79 79
+ 1.656 0 1 cbr 1000 ------- 0 0.0 2.0 82 82
- 1.656 0 1 cbr 1000 ------- 0 0.0 2.0 82 82
r 1.65808 0 1 cbr 1000 ------- 0 0.0 2.0 81 81
+ 1.65808 1 2 cbr 1000 ------- 0 0.0 2.0 81 81
- 1.65808 1 2 cbr 1000 ------- 0 0.0 2.0 81 81
r 1.66016 1 2 cbr 1000 ------- 0 0.0 2.0 80 80
+ 1.664 0 1 cbr 1000 ------- 0 0.0 2.0 83 83
- 1.664 0 1 cbr 1000 ------- 0 0.0 2.0 83 83
r 1.66608 0 1 cbr 1000 ------- 0 0.0 2.0 82 82
+ 1.66608 1 2 cbr 1000 ------- 0 0.0 2.0 82 82
- 1.66608 1 2 cbr 1000 ------- 0 0.0 2.0 82 82
r 1.66816 1 2 cbr 1000 ------- 0 0.0 2.0 81 81
+ 1.672 0 1 cbr 1000 ------- 0 0.0 2.0 84 84
- 1.672 0 1 cbr 1000 ------- 0 0.0 2.0 84 84
r 1.67408 0 1 cbr 1000 ------- 0 0.0 2.0 83 83
+ 1.67408 1 2 cbr 1000 ------- 0 0.0 2.0 83 83
- 1.67408 1 2 cbr 1000 ------- 0 0.0 2.0 83 83
r 1.67616 1 2 cbr 1000 ------- 0 0.0 2.0 82 82
+ 1.68 0 1 cbr 1000 ------- 0 0.0 2.0 85 85
- 1.68 0 1 cbr 1000 ------- 0 0.0 2.0 85 85
r 1.68208 0 1 cbr 1000 ------- 0 0.0 2.0 84 84
+ 1.68208 1 2 cbr 1000 ------- 0 0.0 2.0 84 84
- 1.68208 1 2 cbr 1000 ------- 0 0.0 2.0 84 84
r 1.68416 1 2 cbr 1000 ------- 0 0.0 2.0 83 83
+ 1.688 0 1 cbr 1000 ------- 0 0.0 2.0 86 86
- 1.688 0 1 cbr 1000 ------- 0 0.0 2.0 86 86
r 1.69008 0 1 cbr 1000 ------- 0 0.0 2.0 85 85
+ 1.69008 1 2 cbr 1000 ------- 0 0.0 2.0 85 85
- 1.69008 1 2 cbr 1000 ------- 0 0.0 2.0 85 85
r 1.69216 1 2 cbr 1000 ------- 0 0.0 2.0 84 84
+ 1.696 0 1 cbr 1000 ------- 0 0.0 2.0 87 87
- 1.696 0 1 cbr 1000 ------- 0 0.0 2.0 87 87
r 1.69808 0 1 cbr 1000 ------- 0 0.0 2.0 86 86
+ 1.69808 1 2 cbr 1000 ------- 0 0.0 2.0 86 86
- 1.69808 1 2 cbr 1000 ------- 0 0.0 2.0 86 86
r 1.70016 1 2 cbr 1000 ------- 0 0.0 2.0 85 85
+ 1.704 0 1 cbr 1000 ------- 0 0.0 2.0 88 88
- 1.704 0 1 cbr 1000 ------- 0 0.0 2.0 88 88
r 1.70608 0 1 cbr 1000 ------- 0 0.0 2.0 87 87
+ 1.70608 1 2 cbr 1000 ------- 0 0.0 2.0 87 87
- 1.70608 1 2 cbr 1000 ------- 0 0.0 2.0 87 87
r 1.70816 1 2 cbr 1000 ------- 0 0.0 2.0 86 86
+ 1.712 0 1 cbr 1000 ------- 0 0.0 2.0 89 89
- 1.712 0 1 cbr 1000 ------- 0 0.0 2.0 89 89
r 1.71408 0 1 cbr 1000 ------- 0 0.0 2.0 88 88
+ 1.71408 1 2 cbr 1000 ------- 0 0.0 2.0 88 88
- 1.71408 1 2 cbr 1000 ------- 0 0.0 2.0 88 88
r 1.71616 1 2 cbr 1000 ------- 0 0.0 2.0 87 87
+ 1.72 0 1 cbr 1000 ------- 0 0.0 2.0 90 90
- 1.72 0 1 cbr 1000 ------- 0 0.0 2.0 90 90
r 1.72208 0 1 cbr 1000 ------- 0 0.0 2.0 89 89
+ 1.72208 1 2 cbr 1000 ------- 0 0.0 2.0 89 89
- 1.72208 1 2 cbr 1000 ------- 0 0.0 2.0 89 89
r 1.72416 1 2 cbr 1000 ------- 0 0.0 2.0 88 88
+ 1.728 0 1 cbr 1000 ------- 0 0.0 2.0 91 91
- 1.728 0 1 cbr 1000 ------- 0 0.0 2.0 91 91
r 1.73008 0 1 cbr 1000 ------- 0 0.0 2.0 90 90
+ 1.73008 1 2 cbr 1000 ------- 0 0.0 2.0 90 90
- 1.73008 1 2 cbr 1000 ------- 0 0.0 2.0 90 90
r 1.73216 1 2 cbr 1000 ------- 0 0.0 2.0 89 89
+ 1.736 0 1 cbr 1000 ------- 0 0.0 2.0 92 92
- 1.736 0 1 cbr 1000 ------- 0 0.0 2.0 92 92
r 1.73808 0 1 cbr 1000 ------- 0 0.0 2.0 91 91
+ 1.73808 1 2 cbr 1000 ------- 0 0.0 2.0 91 91
- 1.73808 1 2 cbr 1000 ------- 0 0.0 2.0 91 91
r 1.74016 1 2 cbr 1000 ------- 0 0.0 2.0 90 90
+ 1.744 0 1 cbr 1000 ------- 0 0.0 2.0 93 93
- 1.744 0 1 cbr 1000 ------- 0 0.0 2.0 93 93
r 1.74608 0 1 cbr 1000 ------- 0 0.0 2.0 92 92
+ 1.74608 1 2 cbr 1000 ------- 0 0.0 2.0 92 92
- 1.74608 1 2 cbr 1000 ------- 0 0.0 2.0 92 92
r 1.74816 1 2 cbr 1000 ------- 0 0.0 2.0 91 91
+ 1.752 0 1 cbr 1000 ------- 0 0.0 2.0 94 94
- 1.752 0 1 cbr 1000 ------- 0 0.0 2.0 94 94
r 1.75408 0 1 cbr 1000 ------- 0 0.0 2.0 93 93
+ 1.75408 1 2 cbr 1000 ------- 0 0.0 2.0 93 93
- 1.75408 1 2 cbr 1000 ------- 0 0.0 2.0 93 93
r 1.75616 1 2 cbr 1000 ------- 0 0.0 2.0 92 92
+ 1.76 0 1 cbr 1000 ------- 0 0.0 2.0 95 95
- 1.76 0 1 cbr 1000 ------- 0 0.0 2.0 95 95
r 1.76208 0 1 cbr 1000 ------- 0 0.0 2.0 94 94
+ 1.76208 1 2 cbr 1000 ------- 0 0.0 2.0 94 94
- 1.76208 1 2 cbr 1000 ------- 0 0.0 2.0 94 94
r 1.76416 1 2 cbr 1000 ------- 0 0.0 2.0 93 93
+ 1.768 0 1 cbr 1000 ------- 0 0.0 2.0 96 96
- 1.768 0 1 cbr 1000 ------- 0 0.0 2.0 96 96
r 1.77008 0 1 cbr 1000 ------- 0 0.0 2.0 95 95
+ 1.77008 1 2 cbr 1000 ------- 0 0.0 2.0 95 95
- 1.77008 1 2 cbr 1000 ------- 0 0.0 2.0 95 95
r 1.77216 1 2 cbr 1000 ------- 0 0.0 2.0 94 94
+ 1.776 0 1 cbr 1000 ------- 0 0.0 2.0 97 97
- 1.776 0 1 cbr 1000 ------- 0 0.0 2.0 97 97
r 1.77808 0 1 cbr 1000 ------- 0 0.0 2.0 96 96
+ 1.77808 1 2 cbr 1000 ------- 0 0.0 2.0 96 96
- 1.77808 1 2 cbr 1000 ------- 0 0.0 2.0 96 96
r 1.78016 1 2 cbr 1000 ------- 0 0.0 2.0 95 95
+ 1.784 0 1 cbr 1000 ------- 0 0.0 2.0 98 98
- 1.784 0 1 cbr 1000 ------- 0 0.0 2.0 98 98
r 1.78608 0 1 cbr 1000 ------- 0 0.0 2.0 97 97
+ 1.78608 1 2 cbr 1000 ------- 0 0.0 2.0 97 97
- 1.78608 1 2 cbr 1000 ------- 0 0.0 2.0 97 97
r 1.78816 1 2 cbr 1000 ------- 0 0.0 2.0 96 96
+ 1.792 0 1 cbr 1000 ------- 0 0.0 2.0 99 99
- 1.792 0 1 cbr 1000 ------- 0 0.0 2.0 99 99
r 1.79408 0 1 cbr 1000 ------- 0 0.0 2.0 98 98
+ 1.79408 1 2 cbr 1000 ------- 0 0.0 2.0 98 98
- 1.79408 1 2 cbr 1000 ------- 0 0.0 2.0 98 98
r 1.79616 1 2 cbr 1000 ------- 0 0.0 2.0 97 97
+ 1.8 0 1 cbr 1000 ------- 0 0.0 2.0 100 100
- 1.8 0 1 cbr 1000 ------- 0 0.0 2.0 100 100
r 1.80208 0 1 cbr 1000 ------- 0 0.0 2.0 99 99
+ 1.80208 1 2 cbr 1000 ------- 0 0.0 2.0 99 99
- 1.80208 1 2 cbr 1000 ------- 0 0.0 2.0 99 99
r 1.80416 1 2 cbr 1000 ------- 0 0.0 2.0 98 98
+ 1.808 0 1 cbr 1000 ------- 0 0.0 2.0 101 101
- 1.808 0 1 cbr 1000 ------- 0 0.0 2.0 101 101
r 1.81008 0 1 cbr 1000 ------- 0 0.0 2.0 100 100
+ 1.81008 1 2 cbr 1000 ------- 0 0.0 2.0 100 100
- 1.81008 1 2 cbr 1000 ------- 0 0.0 2.0 100 100
r 1.81216 1 2 cbr 1000 ------- 0 0.0 2.0 99 99
+ 1.816 0 1 cbr 1000 ------- 0 0.0 2.0 102 102
- 1.816 0 1 cbr 1000 ------- 0 0.0 2.0 102 102
r 1.81808 0 1 cbr 1000 ------- 0 0.0 2.0 101 101
+ 1.81808 1 2 cbr 1000 ------- 0 0.0 2.0 101 101
- 1.81808 1 2 cbr 1000 ------- 0 0.0 2.0 101 101
r 1.82016 1 2 cbr 1000 ------- 0 0.0 2.0 100 100
+ 1.824 0 1 cbr 1000 ------- 0 0.0 2.0 103 103
- 1.824 0 1 cbr 1000 ------- 0 0.0 2.0 103 103
r 1.82608 0 1 cbr 1000 ------- 0 0.0 2.0 102 102
+ 1.82608 1 2 cbr 1000 ------- 0 0.0 2.0 102 102
- 1.82608 1 2 cbr 1000 ------- 0 0.0 2.0 102 102
r 1.82816 1 2 cbr 1000 ------- 0 0.0 2.0 101 101
+ 1.832 0 1 cbr 1000 ------- 0 0.0 2.0 104 104
- 1.832 0 1 cbr 1000 ------- 0 0.0 2.0 104 104
r 1.83408 0 1 cbr 1000 ------- 0 0.0 2.0 103 103
+ 1.83408 1 2 cbr 1000 ------- 0 0.0 2.0 103 103
- 1.83408 1 2 cbr 1000 ------- 0 0.0 2.0 103 103
r 1.83616 1 2 cbr 1000 ------- 0 0.0 2.0 102 102
+ 1.84 0 1 cbr 1000 ------- 0 0.0 2.0 105 105
- 1.84 0 1 cbr 1000 ------- 0 0.0 2.0 105 105
r 1.84208 0 1 cbr 1000 ------- 0 0.0 2.0 104 104
+ 1.84208 1 2 cbr 1000 ------- 0 0.0 2.0 104 104
- 1.84208 1 2 cbr 1000 ------- 0 0.0 2.0 104 104
r 1.84416 1 2 cbr 1000 ------- 0 0.0 2.0 103 103
+ 1.848 0 1 cbr 1000 ------- 0 0.0 2.0 106 106
- 1.848 0 1 cbr 1000 ------- 0 0.0 2.0 106 106
r 1.85008 0 1 cbr 1000 ------- 0 0.0 2.0 105 105
+ 1.85008 1 2 cbr 1000 ------- 0 0.0 2.0 105 105
- 1.85008 1 2 cbr 1000 ------- 0 0.0 2.0 105 105
r 1.85216 1 2 cbr 1000 ------- 0 0.0 2.0 104 104
+ 1.856 0 1 cbr 1000 ------- 0 0.0 2.0 107 107
- 1.856 0 1 cbr 1000 ------- 0 0.0 2.0 107 107
r 1.85808 0 1 cbr 1000 ------- 0 0.0 2.0 106 106
+ 1.85808 1 2 cbr 1000 ------- 0 0.0 2.0 106 106
- 1.85808 1 2 cbr 1000 ------- 0 0.0 2.0 106 106
r 1.86016 1 2 cbr 1000 ------- 0 0.0 2.0 105 105
+ 1.864 0 1 cbr 1000 ------- 0 0.0 2.0 108 108
- 1.864 0 1 cbr 1000 ------- 0 0.0 2.0 108 108
r 1.86608 0 1 cbr 1000 ------- 0 0.0 2.0 107 107
+ 1.86608 1 2 cbr 1000 ------- 0 0.0 2.0 107 107
- 1.86608 1 2 cbr 1000 ------- 0 0.0 2.0 107 107
r 1.86816 1 2 cbr 1000 ------- 0 0.0 2.0 106 106