n -t * -s 0  -x 599 -y 499 -Z 0 -z 20  -v circle -c black
n -t * -s 1  -x 772 -y 576 -Z 0 -z 20  -v circle -c black
n -t * -s 2  -x 976 -y 546 -Z 0 -z 20  -v circle -c black
V -t * -v 1.0a5 -a 0
W -t * -x 1200 -y 750
A -t * -n 1 -p 0 -o 0x7fffffff -c 30 -a 1
A -t * -h 1 -m 1073741823 -s 0
n -t 0.100000 -s 0 -x 599.000000 -y 499.000000 -U -9.997918 -V 0.204039 -T 4.901020
n -t 0.100000 -s 1 -x 772.000000 -y 576.000000 -U -13.754893 -V -14.519054 -T 5.234501
n -t 0.100000 -s 2 -x 976.000000 -y 546.000000 -U 22.985746 -V 19.278368 -T 5.394648
+ -t 1.000000000 -s 0 -d -1 -p tcp -e 40 -c 2 -a 0 -i 0 -k AGT 
- -t 1.000000000 -s 0 -d -1 -p tcp -e 40 -c 2 -a 0 -i 0 -k AGT
h -t 1.000000000 -s 0 -d -1 -p tcp -e 40 -c 2 -a 0 -i 0 -k AGT
+ -t 1.000000000 -s 1 -d -1 -p cbr -e 1000 -c 2 -a 0 -i 1 -k AGT 
- -t 1.000000000 -s 1 -d -1 -p cbr -e 1000 -c 2 -a 0 -i 1 -k AGT
h -t 1.000000000 -s 1 -d -1 -p cbr -e 1000 -c 2 -a 0 -i 1 -k AGT
+ -t 1.000000000 -s 0 -d -1 -p AODV -e 48 -c 2 -a 0 -i 0 -k RTR 
- -t 1.000000000 -s 0 -d -1 -p AODV -e 48 -c 2 -a 0 -i 0 -k RTR
h -t 1.000000000 -s 0 -d -1 -p AODV -e 48 -c 2 -a 0 -i 0 -k RTR
+ -t 1.000000000 -s 1 -d -1 -p AODV -e 48 -c 2 -a 0 -i 0 -k RTR 
- -t 1.000000000 -s 1 -d -1 -p AODV -e 48 -c 2 -a 0 -i 0 -k RTR
h -t 1.000000000 -s 1 -d -1 -p AODV -e 48 -c 2 -a 0 -i 0 -k RTR
r -t 1.000988604 -s 1 -d -1 -p AODV -e 48 -c 2 -a 0 -i 0 -k RTR
+ -t 1.000988604 -s 1 -d 0 -p AODV -e 44 -c 2 -a 0 -i 0 -k RTR 
- -t 1.000988604 -s 1 -d 0 -p AODV -e 44 -c 2 -a 0 -i 0 -k RTR
h -t 1.000988604 -s 1 -d 0 -p AODV -e 44 -c 2 -a 0 -i 0 -k RTR
r -t 1.002407208 -s 0 -d -1 -p AODV -e 48 -c 2 -a 0 -i 0 -k RTR
+ -t 1.002407208 -s 0 -d 1 -p tcp -e 40 -c 2 -a 0 -i 0 -k RTR 
- -t 1.002407208 -s 0 -d 1 -p tcp -e 40 -c 2 -a 0 -i 0 -k RTR
h -t 1.002407208 -s 0 -d 1 -p tcp -e 40 -c 2 -a 0 -i 0 -k RTR
r -t 1.002407394 -s 2 -d -1 -p AODV -e 48 -c 2 -a 0 -i 0 -k RTR
+ -t 1.002407394 -s 2 -d 1 -p AODV -e 44 -c 2 -a 0 -i 0 -k RTR 
- -t 1.002407394 -s 2 -d 1 -p AODV -e 44 -c 2 -a 0 -i 0 -k RTR
h -t 1.002407394 -s 2 -d 1 -p AODV -e 44 -c 2 -a 0 -i 0 -k RTR
+ -t 1.006796975 -s 1 -d 2 -p cbr -e 1020 -c 2 -a 0 -i 1 -k RTR 
- -t 1.006796975 -s 1 -d 2 -p cbr -e 1020 -c 2 -a 0 -i 1 -k RTR
h -t 1.006796975 -s 1 -d 2 -p cbr -e 1020 -c 2 -a 0 -i 1 -k RTR
+ -t 1.008000000 -s 1 -d -1 -p cbr -e 1000 -c 2 -a 0 -i 2 -k AGT 
- -t 1.008000000 -s 1 -d -1 -p cbr -e 1000 -c 2 -a 0 -i 2 -k AGT
h -t 1.008000000 -s 1 -d -1 -p cbr -e 1000 -c 2 -a 0 -i 2 -k AGT
+ -t 1.008000000 -s 1 -d 2 -p cbr -e 1020 -c 2 -a 0 -i 2 -k RTR 
- -t 1.008000000 -s 1 -d 2 -p cbr -e 1020 -c 2 -a 0 -i 2 -k RTR
h -t 1.008000000 -s 1 -d 2 -p cbr -e 1020 -c 2 -a 0 -i 2 -k RTR
+ -t 1.010398763 -s 0 -d -1 -p AODV -e 48 -c 2 -a 0 -i 0 -k RTR 
- -t 1.010398763 -s 0 -d -1 -p AODV -e 48 -c 2 -a 0 -i 0 -k RTR
h -t 1.010398763 -s 0 -d -1 -p AODV -e 48 -c 2 -a 0 -i 0 -k RTR
r -t 1.012331013 -s 1 -d 1 -p tcp -e 40 -c 2 -a 0 -i 0 -k AGT
+ -t 1.012331013 -s 1 -d -1 -p ack -e 40 -c 2 -a 0 -i 3 -k AGT 
- -t 1.012331013 -s 1 -d -1 -p ack -e 40 -c 2 -a 0 -i 3 -k AGT
h -t 1.012331013 -s 1 -d -1 -p ack -e 40 -c 2 -a 0 -i 3 -k AGT
+ -t 1.012331013 -s 1 -d 0 -p ack -e 40 -c 2 -a 0 -i 3 -k RTR 
- -t 1.012331013 -s 1 -d 0 -p ack -e 40 -c 2 -a 0 -i 3 -k RTR
h -t 1.012331013 -s 1 -d 0 -p ack -e 40 -c 2 -a 0 -i 3 -k RTR
r -t 1.013704220 -s 1 -d -1 -p AODV -e 48 -c 2 -a 0 -i 0 -k RTR
+ -t 1.016000000 -s 1 -d -1 -p cbr -e 1000 -c 2 -a 0 -i 4 -k AGT 
- -t 1.016000000 -s 1 -d -1 -p cbr -e 1000 -c 2 -a 0 -i 4 -k AGT
h -t 1.016000000 -s 1 -d -1 -p cbr -e 1000 -c 2 -a 0 -i 4 -k AGT
+ -t 1.016000000 -s 1 -d 2 -p cbr -e 1020 -c 2 -a 0 -i 4 -k RTR 
- -t 1.016000000 -s 1 -d 2 -p cbr -e 1020 -c 2 -a 0 -i 4 -k RTR
h -t 1.016000000 -s 1 -d 2 -p cbr -e 1020 -c 2 -a 0 -i 4 -k RTR
+ -t 1.024000000 -s 1 -d -1 -p cbr -e 1000 -c 2 -a 0 -i 5 -k AGT 
- -t 1.024000000 -s 1 -d -1 -p cbr -e 1000 -c 2 -a 0 -i 5 -k AGT
h -t 1.024000000 -s 1 -d -1 -p cbr -e 1000 -c 2 -a 0 -i 5 -k AGT
+ -t 1.024000000 -s 1 -d 2 -p cbr -e 1020 -c 2 -a 0 -i 5 -k RTR 
- -t 1.024000000 -s 1 -d 2 -p cbr -e 1020 -c 2 -a 0 -i 5 -k RTR
h -t 1.024000000 -s 1 -d 2 -p cbr -e 1020 -c 2 -a 0 -i 5 -k RTR
r -t 1.027076973 -s 2 -d 2 -p cbr -e 1020 -c 2 -a 0 -i 1 -k AGT
+ -t 1.032000000 -s 1 -d -1 -p cbr -e 1000 -c 2 -a 0 -i 6 -k AGT 
- -t 1.032000000 -s 1 -d -1 -p cbr -e 1000 -c 2 -a 0 -i 6 -k AGT
h -t 1.032000000 -s 1 -d -1 -p cbr -e 1000 -c 2 -a 0 -i 6 -k AGT
+ -t 1.032000000 -s 1 -d 2 -p cbr -e 1020 -c 2 -a 0 -i 6 -k RTR 
- -t 1.032000000 -s 1 -d 2 -p cbr -e 1020 -c 2 -a 0 -i 6 -k RTR
h -t 1.032000000 -s 1 -d 2 -p cbr -e 1020 -c 2 -a 0 -i 6 -k RTR
r -t 1.037224148 -s 2 -d 2 -p cbr -e 1020 -c 2 -a 0 -i 2 -k AGT
r -t 1.039390752 -s 0 -d 0 -p ack -e 40 -c 2 -a 0 -i 3 -k AGT
+ -t 1.039390752 -s 0 -d -1 -p tcp -e 1540 -c 2 -a 0 -i 7 -k AGT 
- -t 1.039390752 -s 0 -d -1 -p tcp -e 1540 -c 2 -a 0 -i 7 -k AGT
h -t 1.039390752 -s 0 -d -1 -p tcp -e 1540 -c 2 -a 0 -i 7 -k AGT
+ -t 1.039390752 -s 0 -d -1 -p tcp -e 1540 -c 2 -a 0 -i 8 -k AGT 
- -t 1.039390752 -s 0 -d -1 -p tcp -e 1540 -c 2 -a 0 -i 8 -k AGT
h -t 1.039390752 -s 0 -d -1 -p tcp -e 1540 -c 2 -a 0 -i 8 -k AGT
+ -t 1.039390752 -s 0 -d 1 -p tcp -e 1540 -c 2 -a 0 -i 7 -k RTR 
- -t 1.039390752 -s 0 -d 1 -p tcp -e 1540 -c 2 -a 0 -i 7 -k RTR
h -t 1.039390752 -s 0 -d 1 -p tcp -e 1540 -c 2 -a 0 -i 7 -k RTR
+ -t 1.039390752 -s 0 -d 1 -p tcp -e 1540 -c 2 -a 0 -i 8 -k RTR 
- -t 1.039390752 -s 0 -d 1 -p tcp -e 1540 -c 2 -a 0 -i 8 -k RTR
h -t 1.039390752 -s 0 -d 1 -p tcp -e 1540 -c 2 -a 0 -i 8 -k RTR
+ -t 1.040000000 -s 1 -d -1 -p cbr -e 1000 -c 2 -a 0 -i 9 -k AGT 
- -t 1.040000000 -s 1 -d -1 -p cbr -e 1000 -c 2 -a 0 -i 9 -k AGT
h -t 1.040000000 -s 1 -d -1 -p cbr -e 1000 -c 2 -a 0 -i 9 -k AGT
+ -t 1.040000000 -s 1 -d 2 -p cbr -e 1020 -c 2 -a 0 -i 9 -k RTR 
- -t 1.040000000 -s 1 -d 2 -p cbr -e 1020 -c 2 -a 0 -i 9 -k RTR
h -t 1.040000000 -s 1 -d 2 -p cbr -e 1020 -c 2 -a 0 -i 9 -k RTR
+ -t 1.048000000 -s 1 -d -1 -p cbr -e 1000 -c 2 -a 0 -i 10 -k AGT 
- -t 1.048000000 -s 1 -d -1 -p cbr -e 1000 -c 2 -a 0 -i 10 -k AGT
h -t 1.048000000 -s 1 -d -1 -p cbr -e 1000 -c 2 -a 0 -i 10 -k AGT
+ -t 1.048000000 -s 1 -d 2 -p cbr -e 1020 -c 2 -a 0 -i 10 -k RTR 
- -t 1.048000000 -s 1 -d 2 -p cbr -e 1020 -c 2 -a 0 -i 10 -k RTR
h -t 1.048000000 -s 1 -d 2 -p cbr -e 1020 -c 2 -a 0 -i 10 -k RTR
r -t 1.053336560 -s 1 -d 1 -p tcp -e 1540 -c 2 -a 0 -i 7 -k AGT
+ -t 1.053336560 -s 1 -d -1 -p ack -e 40 -c 2 -a 0 -i 11 -k AGT 
- -t 1.053336560 -s 1 -d -1 -p ack -e 40 -c 2 -a 0 -i 11 -k AGT
h -t 1.053336560 -s 1 -d -1 -p ack -e 40 -c 2 -a 0 -i 11 -k AGT
+ -t 1.053336560 -s 1 -d 0 -p ack -e 40 -c 2 -a 0 -i 11 -k RTR 
- -t 1.053336560 -s 1 -d 0 -p ack -e 40 -c 2 -a 0 -i 11 -k RTR
h -t 1.053336560 -s 1 -d 0 -p ack -e 40 -c 2 -a 0 -i 11 -k RTR
+ -t 1.056000000 -s 1 -d -1 -p cbr -e 1000 -c 2 -a 0 -i 12 -k AGT 
- -t 1.056000000 -s 1 -d -1 -p cbr -e 1000 -c 2 -a 0 -i 12 -k AGT
h -t 1.056000000 -s 1 -d -1 -p cbr -e 1000 -c 2 -a 0 -i 12 -k AGT
+ -t 1.056000000 -s 1 -d 2 -p cbr -e 1020 -c 2 -a 0 -i 12 -k RTR 
- -t 1.056000000 -s 1 -d 2 -p cbr -e 1020 -c 2 -a 0 -i 12 -k RTR
h -t 1.056000000 -s 1 -d 2 -p cbr -e 1020 -c 2 -a 0 -i 12 -k RTR
+ -t 1.064000000 -s 1 -d -1 -p cbr -e 1000 -c 2 -a 0 -i 13 -k AGT 
- -t 1.064000000 -s 1 -d -1 -p cbr -e 1000 -c 2 -a 0 -i 13 -k AGT
h -t 1.064000000 -s 1 -d -1 -p cbr -e 1000 -c 2 -a 0 -i 13 -k AGT
+ -t 1.064000000 -s 1 -d 2 -p cbr -e 1020 -c 2 -a 0 -i 13 -k RTR 
- -t 1.064000000 -s 1 -d 2 -p cbr -e 1020 -c 2 -a 0 -i 13 -k RTR
h -t 1.064000000 -s 1 -d 2 -p cbr -e 1020 -c 2 -a 0 -i 13 -k RTR
r -t 1.067362970 -s 1 -d 1 -p tcp -e 1540 -c 2 -a 0 -i 8 -k AGT
+ -t 1.067362970 -s 1 -d -1 -p ack -e 40 -c 2 -a 0 -i 14 -k AGT 
- -t 1.067362970 -s 1 -d -1 -p ack -e 40 -c 2 -a 0 -i 14 -k AGT
h -t 1.067362970 -s 1 -d -1 -p ack -e 40 -c 2 -a 0 -i 14 -k AGT
+ -t 1.067362970 -s 1 -d 0 -p ack -e 40 -c 2 -a 0 -i 14 -k RTR 
- -t 1.067362970 -s 1 -d 0 -p ack -e 40 -c 2 -a 0 -i 14 -k RTR
h -t 1.067362970 -s 1 -d 0 -p ack -e 40 -c 2 -a 0 -i 14 -k RTR
+ -t 1.072000000 -s 1 -d -1 -p cbr -e 1000 -c 2 -a 0 -i 15 -k AGT 
- -t 1.072000000 -s 1 -d -1 -p cbr -e 1000 -c 2 -a 0 -i 15 -k AGT
h -t 1.072000000 -s 1 -d -1 -p cbr -e 1000 -c 2 -a 0 -i 15 -k AGT
+ -t 1.072000000 -s 1 -d 2 -p cbr -e 1020 -c 2 -a 0 -i 15 -k RTR 
- -t 1.072000000 -s 1 -d 2 -p cbr -e 1020 -c 2 -a 0 -i 15 -k RTR
h -t 1.072000000 -s 1 -d 2 -p cbr -e 1020 -c 2 -a 0 -i 15 -k RTR
r -t 1.077049366 -s 2 -d 2 -p cbr -e 1020 -c 2 -a 0 -i 4 -k AGT
+ -t 1.080000000 -s 1 -d -1 -p cbr -e 1000 -c 2 -a 0 -i 16 -k AGT 
- -t 1.080000000 -s 1 -d -1 -p cbr -e 1000 -c 2 -a 0 -i 16 -k AGT
h -t 1.080000000 -s 1 -d -1 -p cbr -e 1000 -c 2 -a 0 -i 16 -k AGT
+ -t 1.080000000 -s 1 -d 2 -p cbr -e 1020 -c 2 -a 0 -i 16 -k RTR 
- -t 1.080000000 -s 1 -d 2 -p cbr -e 1020 -c 2 -a 0 -i 16 -k RTR
h -t 1.080000000 -s 1 -d 2 -p cbr -e 1020 -c 2 -a 0 -i 16 -k RTR
r -t 1.086736565 -s 2 -d 2 -p cbr -e 1020 -c 2 -a 0 -i 5 -k AGT
+ -t 1.088000000 -s 1 -d -1 -p cbr -e 1000 -c 2 -a 0 -i 17 -k AGT 
- -t 1.088000000 -s 1 -d -1 -p cbr -e 1000 -c 2 -a 0 -i 17 -k AGT
h -t 1.088000000 -s 1 -d -1 -p cbr -e 1000 -c 2 -a 0 -i 17 -k AGT
+ -t 1.088000000 -s 1 -d 2 -p cbr -e 1020 -c 2 -a 0 -i 17 -k RTR 
- -t 1.088000000 -s 1 -d 2 -p cbr -e 1020 -c 2 -a 0 -i 17 -k RTR
h -t 1.088000000 -s 1 -d 2 -p cbr -e 1020 -c 2 -a 0 -i 17 -k RTR
+ -t 1.096000000 -s 1 -d -1 -p cbr -e 1000 -c 2 -a 0 -i 18 -k AGT 
- -t 1.096000000 -s 1 -d -1 -p cbr -e 1000 -c 2 -a 0 -i 18 -k AGT
h -t 1.096000000 -s 1 -d -1 -p cbr -e 1000 -c 2 -a 0 -i 18 -k AGT
+ -t 1.096000000 -s 1 -d 2 -p cbr -e 1020 -c 2 -a 0 -i 18 -k RTR 
- -t 1.096000000 -s 1 -d 2 -p cbr -e 1020 -c 2 -a 0 -i 18 -k RTR
h -t 1.096000000 -s 1 -d 2 -p cbr -e 1020 -c 2 -a 0 -i 18 -k RTR
r -t 1.096643769 -s 2 -d 2 -p cbr -e 1020 -c 2 -a 0 -i 6 -k AGT
+ -t 1.104000000 -s 1 -d -1 -p cbr -e 1000 -c 2 -a 0 -i 19 -k AGT 
- -t 1.104000000 -s 1 -d -1 -p cbr -e 1000 -c 2 -a 0 -i 19 -k AGT
h -t 1.104000000 -s 1 -d -1 -p cbr -e 1000 -c 2 -a 0 -i 19 -k AGT
+ -t 1.104000000 -s 1 -d 2 -p cbr -e 1020 -c 2 -a 0 -i 19 -k RTR 
- -t 1.104000000 -s 1 -d 2 -p cbr -e 1020 -c 2 -a 0 -i 19 -k RTR
h -t 1.104000000 -s 1 -d 2 -p cbr -e 1020 -c 2 -a 0 -i 19 -k RTR
r -t 1.106750978 -s 2 -d 2 -p cbr -e 1020 -c 2 -a 0 -i 9 -k AGT
+ -t 1.112000000 -s 1 -d -1 -p cbr -e 1000 -c 2 -a 0 -i 20 -k AGT 
- -t 1.112000000 -s 1 -d -1 -p cbr -e 1000 -c 2 -a 0 -i 20 -k AGT
h -t 1.112000000 -s 1 -d -1 -p cbr -e 1000 -c 2 -a 0 -i 20 -k AGT
+ -t 1.112000000 -s 1 -d 2 -p cbr -e 1020 -c 2 -a 0 -i 20 -k RTR 
- -t 1.112000000 -s 1 -d 2 -p cbr -e 1020 -c 2 -a 0 -i 20 -k RTR
h -t 1.112000000 -s 1 -d 2 -p cbr -e 1020 -c 2 -a 0 -i 20 -k RTR
r -t 1.116598192 -s 2 -d 2 -p cbr -e 1020 -c 2 -a 0 -i 10 -k AGT
r -t 1.119004798 -s 0 -d 0 -p ack -e 40 -c 2 -a 0 -i 11 -k AGT
+ -t 1.119004798 -s 0 -d -1 -p tcp -e 1540 -c 2 -a 0 -i 21 -k AGT 
- -t 1.119004798 -s 0 -d -1 -p tcp -e 1540 -c 2 -a 0 -i 21 -k AGT
h -t 1.119004798 -s 0 -d -1 -p tcp -e 1540 -c 2 -a 0 -i 21 -k AGT
+ -t 1.119004798 -s 0 -d -1 -p tcp -e 1540 -c 2 -a 0 -i 22 -k AGT 
- -t 1.119004798 -s 0 -d -1 -p tcp -e 1540 -c 2 -a 0 -i 22 -k AGT
h -t 1.119004798 -s 0 -d -1 -p tcp -e 1540 -c 2 -a 0 -i 22 -k AGT
+ -t 1.119004798 -s 0 -d 1 -p tcp -e 1540 -c 2 -a 0 -i 21 -k RTR 
- -t 1.119004798 -s 0 -d 1 -p tcp -e 1540 -c 2 -a 0 -i 21 -k RTR
h -t 1.119004798 -s 0 -d 1 -p tcp -e 1540 -c 2 -a 0 -i 21 -k RTR
+ -t 1.119004798 -s 0 -d 1 -p tcp -e 1540 -c 2 -a 0 -i 22 -k RTR 
- -t 1.119004798 -s 0 -d 1 -p tcp -e 1540 -c 2 -a 0 -i 22 -k RTR
h -t 1.119004798 -s 0 -d 1 -p tcp -e 1540 -c 2 -a 0 -i 22 -k RTR
+ -t 1.120000000 -s 1 -d -1 -p cbr -e 1000 -c 2 -a 0 -i 23 -k AGT 
- -t 1.120000000 -s 1 -d -1 -p cbr -e 1000 -c 2 -a 0 -i 23 -k AGT
h -t 1.120000000 -s 1 -d -1 -p cbr -e 1000 -c 2 -a 0 -i 23 -k AGT
+ -t 1.120000000 -s 1 -d 2 -p cbr -e 1020 -c 2 -a 0 -i 23 -k RTR 
- -t 1.120000000 -s 1 -d 2 -p cbr -e 1020 -c 2 -a 0 -i 23 -k RTR
h -t 1.120000000 -s 1 -d 2 -p cbr -e 1020 -c 2 -a 0 -i 23 -k RTR
+ -t 1.128000000 -s 1 -d -1 -p cbr -e 1000 -c 2 -a 0 -i 24 -k AGT 
- -t 1.128000000 -s 1 -d -1 -p cbr -e 1000 -c 2 -a 0 -i 24 -k AGT
h -t 1.128000000 -s 1 -d -1 -p cbr -e 1000 -c 2 -a 0 -i 24 -k AGT
+ -t 1.128000000 -s 1 -d 2 -p cbr -e 1020 -c 2 -a 0 -i 24 -k RTR 
- -t 1.128000000 -s 1 -d 2 -p cbr -e 1020 -c 2 -a 0 -i 24 -k RTR
h -t 1.128000000 -s 1 -d 2 -p cbr -e 1020 -c 2 -a 0 -i 24 -k RTR
r -t 1.133230600 -s 1 -d 1 -p tcp -e 1540 -c 2 -a 0 -i 21 -k AGT
+ -t 1.133230600 -s 1 -d -1 -p ack -e 40 -c 2 -a 0 -i 25 -k AGT 
- -t 1.133230600 -s 1 -d -1 -p ack -e 40 -c 2 -a 0 -i 25 -k AGT
h -t 1.133230600 -s 1 -d -1 -p ack -e 40 -c 2 -a 0 -i 25 -k AGT
+ -t 1.133230600 -s 1 -d 0 -p ack -e 40 -c 2 -a 0 -i 25 -k RTR 
- -t 1.133230600 -s 1 -d 0 -p ack -e 40 -c 2 -a 0 -i 25 -k RTR
h -t 1.133230600 -s 1 -d 0 -p ack -e 40 -c 2 -a 0 -i 25 -k RTR
+ -t 1.136000000 -s 1 -d -1 -p cbr -e 1000 -c 2 -a 0 -i 26 -k AGT 
- -t 1.136000000 -s 1 -d -1 -p cbr -e 1000 -c 2 -a 0 -i 26 -k AGT
h -t 1.136000000 -s 1 -d -1 -p cbr -e 1000 -c 2 -a 0 -i 26 -k AGT
+ -t 1.136000000 -s 1 -d 2 -p cbr -e 1020 -c 2 -a 0 -i 26 -k RTR 
- -t 1.136000000 -s 1 -d 2 -p cbr -e 1020 -c 2 -a 0 -i 26 -k RTR
h -t 1.136000000 -s 1 -d 2 -p cbr -e 1020 -c 2 -a 0 -i 26 -k RTR
r -t 1.143057020 -s 2 -d 2 -p cbr -e 1020 -c 2 -a 0 -i 12 -k AGT
+ -t 1.144000000 -s 1 -d -1 -p cbr -e 1000 -c 2 -a 0 -i 27 -k AGT 
- -t 1.144000000 -s 1 -d -1 -p cbr -e 1000 -c 2 -a 0 -i 27 -k AGT
h -t 1.144000000 -s 1 -d -1 -p cbr -e 1000 -c 2 -a 0 -i 27 -k AGT
+ -t 1.144000000 -s 1 -d 2 -p cbr -e 1020 -c 2 -a 0 -i 27 -k RTR 
- -t 1.144000000 -s 1 -d 2 -p cbr -e 1020 -c 2 -a 0 -i 27 -k RTR
h -t 1.144000000 -s 1 -d 2 -p cbr -e 1020 -c 2 -a 0 -i 27 -k RTR
+ -t 1.152000000 -s 1 -d -1 -p cbr -e 1000 -c 2 -a 0 -i 28 -k AGT 
- -t 1.152000000 -s 1 -d -1 -p cbr -e 1000 -c 2 -a 0 -i 28 -k AGT
h -t 1.152000000 -s 1 -d -1 -p cbr -e 1000 -c 2 -a 0 -i 28 -k AGT
+ -t 1.152000000 -s 1 -d 2 -p cbr -e 1020 -c 2 -a 0 -i 28 -k RTR 
- -t 1.152000000 -s 1 -d 2 -p cbr -e 1020 -c 2 -a 0 -i 28 -k RTR
h -t 1.152000000 -s 1 -d 2 -p cbr -e 1020 -c 2 -a 0 -i 28 -k RTR
r -t 1.152764252 -s 2 -d 2 -p cbr -e 1020 -c 2 -a 0 -i 13 -k AGT
r -t 1.154890860 -s 0 -d 0 -p ack -e 40 -c 2 -a 0 -i 14 -k AGT
+ -t 1.154890860 -s 0 -d -1 -p tcp -e 1540 -c 2 -a 0 -i 29 -k AGT 
- -t 1.154890860 -s 0 -d -1 -p tcp -e 1540 -c 2 -a 0 -i 29 -k AGT
h -t 1.154890860 -s 0 -d -1 -p tcp -e 1540 -c 2 -a 0 -i 29 -k AGT
+ -t 1.154890860 -s 0 -d -1 -p tcp -e 1540 -c 2 -a 0 -i 30 -k AGT 
- -t 1.154890860 -s 0 -d -1 -p tcp -e 1540 -c 2 -a 0 -i 30 -k AGT
h -t 1.154890860 -s 0 -d -1 -p tcp -e 1540 -c 2 -a 0 -i 30 -k AGT
+ -t 1.154890860 -s 0 -d 1 -p tcp -e 1540 -c 2 -a 0 -i 29 -k RTR 
- -t 1.154890860 -s 0 -d 1 -p tcp -e 1540 -c 2 -a 0 -i 29 -k RTR
h -t 1.154890860 -s 0 -d 1 -p tcp -e 1540 -c 2 -a 0 -i 29 -k RTR
+ -t 1.154890860 -s 0 -d 1 -p tcp -e 1540 -c 2 -a 0 -i 30 -k RTR 
- -t 1.154890860 -s 0 -d 1 -p tcp -e 1540 -c 2 -a 0 -i 30 -k RTR
h -t 1.154890860 -s 0 -d 1 -p tcp -e 1540 -c 2 -a 0 -i 30 -k RTR
+ -t 1.160000000 -s 1 -d -1 -p cbr -e 1000 -c 2 -a 0 -i 31 -k AGT 
- -t 1.160000000 -s 1 -d -1 -p cbr -e 1000 -c 2 -a 0 -i 31 -k AGT
h -t 1.160000000 -s 1 -d -1 -p cbr -e 1000 -c 2 -a 0 -i 31 -k AGT
+ -t 1.160000000 -s 1 -d 2 -p cbr -e 1020 -c 2 -a 0 -i 31 -k RTR 
- -t 1.160000000 -s 1 -d 2 -p cbr -e 1020 -c 2 -a 0 -i 31 -k RTR
h -t 1.160000000 -s 1 -d 2 -p cbr -e 1020 -c 2 -a 0 -i 31 -k RTR
+ -t 1.168000000 -s 1 -d -1 -p cbr -e 1000 -c 2 -a 0 -i 32 -k AGT 
- -t 1.168000000 -s 1 -d -1 -p cbr -e 1000 -c 2 -a 0 -i 32 -k AGT
h -t 1.168000000 -s 1 -d -1 -p cbr -e 1000 -c 2 -a 0 -i 32 -k AGT
+ -t 1.168000000 -s 1 -d 2 -p cbr -e 1020 -c 2 -a 0 -i 32 -k RTR 
- -t 1.168000000 -s 1 -d 2 -p cbr -e 1020 -c 2 -a 0 -i 32 -k RTR
h -t 1.168000000 -s 1 -d 2 -p cbr -e 1020 -c 2 -a 0 -i 32 -k RTR
r -t 1.168936659 -s 1 -d 1 -p tcp -e 1540 -c 2 -a 0 -i 22 -k AGT
+ -t 1.168936659 -s 1 -d -1 -p ack -e 40 -c 2 -a 0 -i 33 -k AGT 
- -t 1.168936659 -s 1 -d -1 -p ack -e 40 -c 2 -a 0 -i 33 -k AGT
h -t 1.168936659 -s 1 -d -1 -p ack -e 40 -c 2 -a 0 -i 33 -k AGT
+ -t 1.168936659 -s 1 -d 0 -p ack -e 40 -c 2 -a 0 -i 33 -k RTR 
- -t 1.168936659 -s 1 -d 0 -p ack -e 40 -c 2 -a 0 -i 33 -k RTR
h -t 1.168936659 -s 1 -d 0 -p ack -e 40 -c 2 -a 0 -i 33 -k RTR
+ -t 1.176000000 -s 1 -d -1 -p cbr -e 1000 -c 2 -a 0 -i 34 -k AGT 
- -t 1.176000000 -s 1 -d -1 -p cbr -e 1000 -c 2 -a 0 -i 34 -k AGT
h -t 1.176000000 -s 1 -d -1 -p cbr -e 1000 -c 2 -a 0 -i 34 -k AGT
+ -t 1.176000000 -s 1 -d 2 -p cbr -e 1020 -c 2 -a 0 -i 34 -k RTR 
- -t 1.176000000 -s 1 -d 2 -p cbr -e 1020 -c 2 -a 0 -i 34 -k RTR
h -t 1.176000000 -s 1 -d 2 -p cbr -e 1020 -c 2 -a 0 -i 34 -k RTR
r -t 1.182903055 -s 1 -d 1 -p tcp -e 1540 -c 2 -a 0 -i 29 -k AGT
+ -t 1.182903055 -s 1 -d -1 -p ack -e 40 -c 2 -a 0 -i 35 -k AGT 
- -t 1.182903055 -s 1 -d -1 -p ack -e 40 -c 2 -a 0 -i 35 -k AGT
h -t 1.182903055 -s 1 -d -1 -p ack -e 40 -c 2 -a 0 -i 35 -k AGT
+ -t 1.182903055 -s 1 -d 0 -p ack -e 40 -c 2 -a 0 -i 35 -k RTR 
- -t 1.182903055 -s 1 -d 0 -p ack -e 40 -c 2 -a 0 -i 35 -k RTR
h -t 1.182903055 -s 1 -d 0 -p ack -e 40 -c 2 -a 0 -i 35 -k RTR
+ -t 1.184000000 -s 1 -d -1 -p cbr -e 1000 -c 2 -a 0 -i 36 -k AGT 
- -t 1.184000000 -s 1 -d -1 -p cbr -e 1000 -c 2 -a 0 -i 36 -k AGT
h -t 1.184000000 -s 1 -d -1 -p cbr -e 1000 -c 2 -a 0 -i 36 -k AGT
+ -t 1.184000000 -s 1 -d 2 -p cbr -e 1020 -c 2 -a 0 -i 36 -k RTR 
- -t 1.184000000 -s 1 -d 2 -p cbr -e 1020 -c 2 -a 0 -i 36 -k RTR
h -t 1.184000000 -s 1 -d 2 -p cbr -e 1020 -c 2 -a 0 -i 36 -k RTR
+ -t 1.192000000 -s 1 -d -1 -p cbr -e 1000 -c 2 -a 0 -i 37 -k AGT 
- -t 1.192000000 -s 1 -d -1 -p cbr -e 1000 -c 2 -a 0 -i 37 -k AGT
h -t 1.192000000 -s 1 -d -1 -p cbr -e 1000 -c 2 -a 0 -i 37 -k AGT
+ -t 1.192000000 -s 1 -d 2 -p cbr -e 1020 -c 2 -a 0 -i 37 -k RTR 
- -t 1.192000000 -s 1 -d 2 -p cbr -e 1020 -c 2 -a 0 -i 37 -k RTR
h -t 1.192000000 -s 1 -d 2 -p cbr -e 1020 -c 2 -a 0 -i 37 -k RTR
r -t 1.192589494 -s 2 -d 2 -p cbr -e 1020 -c 2 -a 0 -i 15 -k AGT
+ -t 1.200000000 -s 1 -d -1 -p cbr -e 1000 -c 2 -a 0 -i 38 -k AGT 
- -t 1.200000000 -s 1 -d -1 -p cbr -e 1000 -c 2 -a 0 -i 38 -k AGT
h -t 1.200000000 -s 1 -d -1 -p cbr -e 1000 -c 2 -a 0 -i 38 -k AGT
+ -t 1.200000000 -s 1 -d 2 -p cbr -e 1020 -c 2 -a 0 -i 38 -k RTR 
- -t 1.200000000 -s 1 -d 2 -p cbr -e 1020 -c 2 -a 0 -i 38 -k RTR
h -t 1.200000000 -s 1 -d 2 -p cbr -e 1020 -c 2 -a 0 -i 38 -k RTR
r -t 1.202536751 -s 2 -d 2 -p cbr -e 1020 -c 2 -a 0 -i 16 -k AGT
+ -t 1.208000000 -s 1 -d -1 -p cbr -e 1000 -c 2 -a 0 -i 39 -k AGT 
- -t 1.208000000 -s 1 -d -1 -p cbr -e 1000 -c 2 -a 0 -i 39 -k AGT
h -t 1.208000000 -s 1 -d -1 -p cbr -e 1000 -c 2 -a 0 -i 39 -k AGT
+ -t 1.208000000 -s 1 -d 2 -p cbr -e 1020 -c 2 -a 0 -i 39 -k RTR 
- -t 1.208000000 -s 1 -d 2 -p cbr -e 1020 -c 2 -a 0 -i 39 -k RTR
h -t 1.208000000 -s 1 -d 2 -p cbr -e 1020 -c 2 -a 0 -i 39 -k RTR
r -t 1.212404013 -s 2 -d 2 -p cbr -e 1020 -c 2 -a 0 -i 17 -k AGT
+ -t 1.216000000 -s 1 -d -1 -p cbr -e 1000 -c 2 -a 0 -i 40 -k AGT 
- -t 1.216000000 -s 1 -d -1 -p cbr -e 1000 -c 2 -a 0 -i 40 -k AGT
h -t 1.216000000 -s 1 -d -1 -p cbr -e 1000 -c 2 -a 0 -i 40 -k AGT
+ -t 1.216000000 -s 1 -d 2 -p cbr -e 1020 -c 2 -a 0 -i 40 -k RTR 
- -t 1.216000000 -s 1 -d 2 -p cbr -e 1020 -c 2 -a 0 -i 40 -k RTR
h -t 1.216000000 -s 1 -d 2 -p cbr -e 1020 -c 2 -a 0 -i 40 -k RTR
r -t 1.222171280 -s 2 -d 2 -p cbr -e 1020 -c 2 -a 0 -i 18 -k AGT
+ -t 1.224000000 -s 1 -d -1 -p cbr -e 1000 -c 2 -a 0 -i 41 -k AGT 
- -t 1.224000000 -s 1 -d -1 -p cbr -e 1000 -c 2 -a 0 -i 41 -k AGT
h -t 1.224000000 -s 1 -d -1 -p cbr -e 1000 -c 2 -a 0 -i 41 -k AGT
+ -t 1.224000000 -s 1 -d 2 -p cbr -e 1020 -c 2 -a 0 -i 41 -k RTR 
- -t 1.224000000 -s 1 -d 2 -p cbr -e 1020 -c 2 -a 0 -i 41 -k RTR
h -t 1.224000000 -s 1 -d 2 -p cbr -e 1020 -c 2 -a 0 -i 41 -k RTR
+ -t 1.232000000 -s 1 -d -1 -p cbr -e 1000 -c 2 -a 0 -i 42 -k AGT 
- -t 1.232000000 -s 1 -d -1 -p cbr -e 1000 -c 2 -a 0 -i 42 -k AGT
h -t 1.232000000 -s 1 -d -1 -p cbr -e 1000 -c 2 -a 0 -i 42 -k AGT
+ -t 1.232000000 -s 1 -d 2 -p cbr -e 1020 -c 2 -a 0 -i 42 -k RTR 
- -t 1.232000000 -s 1 -d 2 -p cbr -e 1020 -c 2 -a 0 -i 42 -k RTR
h -t 1.232000000 -s 1 -d 2 -p cbr -e 1020 -c 2 -a 0 -i 42 -k RTR
r -t 1.236442472 -s 1 -d 1 -p tcp -e 1540 -c 2 -a 0 -i 30 -k AGT
+ -t 1.236442472 -s 1 -d -1 -p ack -e 40 -c 2 -a 0 -i 43 -k AGT 
- -t 1.236442472 -s 1 -d -1 -p ack -e 40 -c 2 -a 0 -i 43 -k AGT
h -t 1.236442472 -s 1 -d -1 -p ack -e 40 -c 2 -a 0 -i 43 -k AGT
+ -t 1.236442472 -s 1 -d 0 -p ack -e 40 -c 2 -a 0 -i 43 -k RTR 
- -t 1.236442472 -s 1 -d 0 -p ack -e 40 -c 2 -a 0 -i 43 -k RTR
h -t 1.236442472 -s 1 -d 0 -p ack -e 40 -c 2 -a 0 -i 43 -k RTR
+ -t 1.240000000 -s 1 -d -1 -p cbr -e 1000 -c 2 -a 0 -i 44 -k AGT 
- -t 1.240000000 -s 1 -d -1 -p cbr -e 1000 -c 2 -a 0 -i 44 -k AGT
h -t 1.240000000 -s 1 -d -1 -p cbr -e 1000 -c 2 -a 0 -i 44 -k AGT
+ -t 1.240000000 -s 1 -d 2 -p cbr -e 1020 -c 2 -a 0 -i 44 -k RTR 
- -t 1.240000000 -s 1 -d 2 -p cbr -e 1020 -c 2 -a 0 -i 44 -k RTR
h -t 1.240000000 -s 1 -d 2 -p cbr -e 1020 -c 2 -a 0 -i 44 -k RTR
r -t 1.246188931 -s 2 -d 2 -p cbr -e 1020 -c 2 -a 0 -i 19 -k AGT
+ -t 1.248000000 -s 1 -d -1 -p cbr -e 1000 -c 2 -a 0 -i 45 -k AGT 
- -t 1.248000000 -s 1 -d -1 -p cbr -e 1000 -c 2 -a 0 -i 45 -k AGT
h -t 1.248000000 -s 1 -d -1 -p cbr -e 1000 -c 2 -a 0 -i 45 -k AGT
+ -t 1.248000000 -s 1 -d 2 -p cbr -e 1020 -c 2 -a 0 -i 45 -k RTR 
- -t 1.248000000 -s 1 -d 2 -p cbr -e 1020 -c 2 -a 0 -i 45 -k RTR
h -t 1.248000000 -s 1 -d 2 -p cbr -e 1020 -c 2 -a 0 -i 45 -k RTR
+ -t 1.256000000 -s 1 -d -1 -p cbr -e 1000 -c 2 -a 0 -i 46 -k AGT 
- -t 1.256000000 -s 1 -d -1 -p cbr -e 1000 -c 2 -a 0 -i 46 -k AGT
h -t 1.256000000 -s 1 -d -1 -p cbr -e 1000 -c 2 -a 0 -i 46 -k AGT
+ -t 1.256000000 -s 1 -d 2 -p cbr -e 1020 -c 2 -a 0 -i 46 -k RTR 
- -t 1.256000000 -s 1 -d 2 -p cbr -e 1020 -c 2 -a 0 -i 46 -k RTR
h -t 1.256000000 -s 1 -d 2 -p cbr -e 1020 -c 2 -a 0 -i 46 -k RTR
r -t 1.256056215 -s 2 -d 2 -p cbr -e 1020 -c 2 -a 0 -i 20 -k AGT
+ -t 1.264000000 -s 1 -d -1 -p cbr -e 1000 -c 2 -a 0 -i 47 -k AGT 
- -t 1.264000000 -s 1 -d -1 -p cbr -e 1000 -c 2 -a 0 -i 47 -k AGT
h -t 1.264000000 -s 1 -d -1 -p cbr -e 1000 -c 2 -a 0 -i 47 -k AGT
+ -t 1.264000000 -s 1 -d 2 -p cbr -e 1020 -c 2 -a 0 -i 47 -k RTR 
- -t 1.264000000 -s 1 -d 2 -p cbr -e 1020 -c 2 -a 0 -i 47 -k RTR
h -t 1.264000000 -s 1 -d 2 -p cbr -e 1020 -c 2 -a 0 -i 47 -k RTR
r -t 1.266303504 -s 2 -d 2 -p cbr -e 1020 -c 2 -a 0 -i 23 -k AGT
+ -t 1.272000000 -s 1 -d -1 -p cbr -e 1000 -c 2 -a 0 -i 48 -k AGT 
- -t 1.272000000 -s 1 -d -1 -p cbr -e 1000 -c 2 -a 0 -i 48 -k AGT
h -t 1.272000000 -s 1 -d -1 -p cbr -e 1000 -c 2 -a 0 -i 48 -k AGT
+ -t 1.272000000 -s 1 -d 2 -p cbr -e 1020 -c 2 -a 0 -i 48 -k RTR 
- -t 1.272000000 -s 1 -d 2 -p cbr -e 1020 -c 2 -a 0 -i 48 -k RTR
h -t 1.272000000 -s 1 -d 2 -p cbr -e 1020 -c 2 -a 0 -i 48 -k RTR
r -t 1.276030798 -s 2 -d 2 -p cbr -e 1020 -c 2 -a 0 -i 24 -k AGT
r -t 1.277977411 -s 0 -d 0 -p ack -e 40 -c 2 -a 0 -i 25 -k AGT
+ -t 1.277977411 -s 0 -d -1 -p tcp -e 1540 -c 2 -a 0 -i 49 -k AGT 
- -t 1.277977411 -s 0 -d -1 -p tcp -e 1540 -c 2 -a 0 -i 49 -k AGT
h -t 1.277977411 -s 0 -d -1 -p tcp -e 1540 -c 2 -a 0 -i 49 -k AGT
+ -t 1.277977411 -s 0 -d -1 -p tcp -e 1540 -c 2 -a 0 -i 50 -k AGT 
- -t 1.277977411 -s 0 -d -1 -p tcp -e 1540 -c 2 -a 0 -i 50 -k AGT
h -t 1.277977411 -s 0 -d -1 -p tcp -e 1540 -c 2 -a 0 -i 50 -k AGT
+ -t 1.277977411 -s 0 -d 1 -p tcp -e 1540 -c 2 -a 0 -i 49 -k RTR 
- -t 1.277977411 -s 0 -d 1 -p tcp -e 1540 -c 2 -a 0 -i 49 -k RTR
h -t 1.277977411 -s 0 -d 1 -p tcp -e 1540 -c 2 -a 0 -i 49 -k RTR
+ -t 1.277977411 -s 0 -d 1 -p tcp -e 1540 -c 2 -a 0 -i 50 -k RTR 
- -t 1.277977411 -s 0 -d 1 -p tcp -e 1540 -c 2 -a 0 -i 50 -k RTR
h -t 1.277977411 -s 0 -d 1 -p tcp -e 1540 -c 2 -a 0 -i 50 -k RTR
+ -t 1.280000000 -s 1 -d -1 -p cbr -e 1000 -c 2 -a 0 -i 51 -k AGT 
- -t 1.280000000 -s 1 -d -1 -p cbr -e 1000 -c 2 -a 0 -i 51 -k AGT
h -t 1.280000000 -s 1 -d -1 -p cbr -e 1000 -c 2 -a 0 -i 51 -k AGT
+ -t 1.280000000 -s 1 -d 2 -p cbr -e 1020 -c 2 -a 0 -i 51 -k RTR 
- -t 1.280000000 -s 1 -d 2 -p cbr -e 1020 -c 2 -a 0 -i 51 -k RTR
h -t 1.280000000 -s 1 -d 2 -p cbr -e 1020 -c 2 -a 0 -i 51 -k RTR
+ -t 1.288000000 -s 1 -d -1 -p cbr -e 1000 -c 2 -a 0 -i 52 -k AGT 
- -t 1.288000000 -s 1 -d -1 -p cbr -e 1000 -c 2 -a 0 -i 52 -k AGT
h -t 1.288000000 -s 1 -d -1 -p cbr -e 1000 -c 2 -a 0 -i 52 -k AGT
+ -t 1.288000000 -s 1 -d 2 -p cbr -e 1020 -c 2 -a 0 -i 52 -k RTR 
- -t 1.288000000 -s 1 -d 2 -p cbr -e 1020 -c 2 -a 0 -i 52 -k RTR
h -t 1.288000000 -s 1 -d 2 -p cbr -e 1020 -c 2 -a 0 -i 52 -k RTR
r -t 1.292143199 -s 1 -d 1 -p tcp -e 1540 -c 2 -a 0 -i 49 -k AGT
+ -t 1.292143199 -s 1 -d -1 -p ack -e 40 -c 2 -a 0 -i 53 -k AGT 
- -t 1.292143199 -s 1 -d -1 -p ack -e 40 -c 2 -a 0 -i 53 -k AGT
h -t 1.292143199 -s 1 -d -1 -p ack -e 40 -c 2 -a 0 -i 53 -k AGT
+ -t 1.292143199 -s 1 -d 0 -p ack -e 40 -c 2 -a 0 -i 53 -k RTR 
- -t 1.292143199 -s 1 -d 0 -p ack -e 40 -c 2 -a 0 -i 53 -k RTR
h -t 1.292143199 -s 1 -d 0 -p ack -e 40 -c 2 -a 0 -i 53 -k RTR
+ -t 1.296000000 -s 1 -d -1 -p cbr -e 1000 -c 2 -a 0 -i 54 -k AGT 
- -t 1.296000000 -s 1 -d -1 -p cbr -e 1000 -c 2 -a 0 -i 54 -k AGT
h -t 1.296000000 -s 1 -d -1 -p cbr -e 1000 -c 2 -a 0 -i 54 -k AGT
+ -t 1.296000000 -s 1 -d 2 -p cbr -e 1020 -c 2 -a 0 -i 54 -k RTR 
- -t 1.296000000 -s 1 -d 2 -p cbr -e 1020 -c 2 -a 0 -i 54 -k RTR
h -t 1.296000000 -s 1 -d 2 -p cbr -e 1020 -c 2 -a 0 -i 54 -k RTR
r -t 1.301989679 -s 2 -d 2 -p cbr -e 1020 -c 2 -a 0 -i 26 -k AGT
+ -t 1.304000000 -s 1 -d -1 -p cbr -e 1000 -c 2 -a 0 -i 55 -k AGT 
- -t 1.304000000 -s 1 -d -1 -p cbr -e 1000 -c 2 -a 0 -i 55 -k AGT
h -t 1.304000000 -s 1 -d -1 -p cbr -e 1000 -c 2 -a 0 -i 55 -k AGT
+ -t 1.304000000 -s 1 -d 2 -p cbr -e 1020 -c 2 -a 0 -i 55 -k RTR 
- -t 1.304000000 -s 1 -d 2 -p cbr -e 1020 -c 2 -a 0 -i 55 -k RTR
h -t 1.304000000 -s 1 -d 2 -p cbr -e 1020 -c 2 -a 0 -i 55 -k RTR
r -t 1.311836992 -s 2 -d 2 -p cbr -e 1020 -c 2 -a 0 -i 27 -k AGT
+ -t 1.312000000 -s 1 -d -1 -p cbr -e 1000 -c 2 -a 0 -i 56 -k AGT 
- -t 1.312000000 -s 1 -d -1 -p cbr -e 1000 -c 2 -a 0 -i 56 -k AGT
h -t 1.312000000 -s 1 -d -1 -p cbr -e 1000 -c 2 -a 0 -i 56 -k AGT
+ -t 1.312000000 -s 1 -d 2 -p cbr -e 1020 -c 2 -a 0 -i 56 -k RTR 
- -t 1.312000000 -s 1 -d 2 -p cbr -e 1020 -c 2 -a 0 -i 56 -k RTR
h -t 1.312000000 -s 1 -d 2 -p cbr -e 1020 -c 2 -a 0 -i 56 -k RTR
+ -t 1.320000000 -s 1 -d -1 -p cbr -e 1000 -c 2 -a 0 -i 57 -k AGT 
- -t 1.320000000 -s 1 -d -1 -p cbr -e 1000 -c 2 -a 0 -i 57 -k AGT
h -t 1.320000000 -s 1 -d -1 -p cbr -e 1000 -c 2 -a 0 -i 57 -k AGT
+ -t 1.320000000 -s 1 -d 2 -p cbr -e 1020 -c 2 -a 0 -i 57 -k RTR 
- -t 1.320000000 -s 1 -d 2 -p cbr -e 1020 -c 2 -a 0 -i 57 -k RTR
h -t 1.320000000 -s 1 -d 2 -p cbr -e 1020 -c 2 -a 0 -i 57 -k RTR
r -t 1.321784309 -s 2 -d 2 -p cbr -e 1020 -c 2 -a 0 -i 28 -k AGT
+ -t 1.328000000 -s 1 -d -1 -p cbr -e 1000 -c 2 -a 0 -i 58 -k AGT 
- -t 1.328000000 -s 1 -d -1 -p cbr -e 1000 -c 2 -a 0 -i 58 -k AGT
h -t 1.328000000 -s 1 -d -1 -p cbr -e 1000 -c 2 -a 0 -i 58 -k AGT
+ -t 1.328000000 -s 1 -d 2 -p cbr -e 1020 -c 2 -a 0 -i 58 -k RTR 
- -t 1.328000000 -s 1 -d 2 -p cbr -e 1020 -c 2 -a 0 -i 58 -k RTR
h -t 1.328000000 -s 1 -d 2 -p cbr -e 1020 -c 2 -a 0 -i 58 -k RTR
r -t 1.331931631 -s 2 -d 2 -p cbr -e 1020 -c 2 -a 0 -i 31 -k AGT
+ -t 1.336000000 -s 1 -d -1 -p cbr -e 1000 -c 2 -a 0 -i 59 -k AGT 
- -t 1.336000000 -s 1 -d -1 -p cbr -e 1000 -c 2 -a 0 -i 59 -k AGT
h -t 1.336000000 -s 1 -d -1 -p cbr -e 1000 -c 2 -a 0 -i 59 -k AGT
+ -t 1.336000000 -s 1 -d 2 -p cbr -e 1020 -c 2 -a 0 -i 59 -k RTR 
- -t 1.336000000 -s 1 -d 2 -p cbr -e 1020 -c 2 -a 0 -i 59 -k RTR
h -t 1.336000000 -s 1 -d 2 -p cbr -e 1020 -c 2 -a 0 -i 59 -k RTR
r -t 1.341598959 -s 2 -d 2 -p cbr -e 1020 -c 2 -a 0 -i 32 -k AGT
r -t 1.343645574 -s 0 -d 0 -p ack -e 40 -c 2 -a 0 -i 33 -k AGT
+ -t 1.343645574 -s 0 -d -1 -p tcp -e 1540 -c 2 -a 0 -i 60 -k AGT 
- -t 1.343645574 -s 0 -d -1 -p tcp -e 1540 -c 2 -a 0 -i 60 -k AGT
h -t 1.343645574 -s 0 -d -1 -p tcp -e 1540 -c 2 -a 0 -i 60 -k AGT
+ -t 1.343645574 -s 0 -d -1 -p tcp -e 1540 -c 2 -a 0 -i 61 -k AGT 
- -t 1.343645574 -s 0 -d -1 -p tcp -e 1540 -c 2 -a 0 -i 61 -k AGT
h -t 1.343645574 -s 0 -d -1 -p tcp -e 1540 -c 2 -a 0 -i 61 -k AGT
+ -t 1.343645574 -s 0 -d 1 -p tcp -e 1540 -c 2 -a 0 -i 60 -k RTR 
- -t 1.343645574 -s 0 -d 1 -p tcp -e 1540 -c 2 -a 0 -i 60 -k RTR
h -t 1.343645574 -s 0 -d 1 -p tcp -e 1540 -c 2 -a 0 -i 60 -k RTR
+ -t 1.343645574 -s 0 -d 1 -p tcp -e 1540 -c 2 -a 0 -i 61 -k RTR 
- -t 1.343645574 -s 0 -d 1 -p tcp -e 1540 -c 2 -a 0 -i 61 -k RTR
h -t 1.343645574 -s 0 -d 1 -p tcp -e 1540 -c 2 -a 0 -i 61 -k RTR
+ -t 1.344000000 -s 1 -d -1 -p cbr -e 1000 -c 2 -a 0 -i 62 -k AGT 
- -t 1.344000000 -s 1 -d -1 -p cbr -e 1000 -c 2 -a 0 -i 62 -k AGT
h -t 1.344000000 -s 1 -d -1 -p cbr -e 1000 -c 2 -a 0 -i 62 -k AGT
+ -t 1.344000000 -s 1 -d 2 -p cbr -e 1020 -c 2 -a 0 -i 62 -k RTR 
- -t 1.344000000 -s 1 -d 2 -p cbr -e 1020 -c 2 -a 0 -i 62 -k RTR
h -t 1.344000000 -s 1 -d 2 -p cbr -e 1020 -c 2 -a 0 -i 62 -k RTR
+ -t 1.352000000 -s 1 -d -1 -p cbr -e 1000 -c 2 -a 0 -i 63 -k AGT 
- -t 1.352000000 -s 1 -d -1 -p cbr -e 1000 -c 2 -a 0 -i 63 -k AGT
h -t 1.352000000 -s 1 -d -1 -p cbr -e 1000 -c 2 -a 0 -i 63 -k AGT
+ -t 1.352000000 -s 1 -d 2 -p cbr -e 1020 -c 2 -a 0 -i 63 -k RTR 
- -t 1.352000000 -s 1 -d 2 -p cbr -e 1020 -c 2 -a 0 -i 63 -k RTR
h -t 1.352000000 -s 1 -d 2 -p cbr -e 1020 -c 2 -a 0 -i 63 -k RTR
r -t 1.357491357 -s 1 -d 1 -p tcp -e 1540 -c 2 -a 0 -i 50 -k AGT
+ -t 1.357491357 -s 1 -d -1 -p ack -e 40 -c 2 -a 0 -i 64 -k AGT 
- -t 1.357491357 -s 1 -d -1 -p ack -e 40 -c 2 -a 0 -i 64 -k AGT
h -t 1.357491357 -s 1 -d -1 -p ack -e 40 -c 2 -a 0 -i 64 -k AGT
+ -t 1.357491357 -s 1 -d 0 -p ack -e 40 -c 2 -a 0 -i 64 -k RTR 
- -t 1.357491357 -s 1 -d 0 -p ack -e 40 -c 2 -a 0 -i 64 -k RTR
h -t 1.357491357 -s 1 -d 0 -p ack -e 40 -c 2 -a 0 -i 64 -k RTR
+ -t 1.360000000 -s 1 -d -1 -p cbr -e 1000 -c 2 -a 0 -i 65 -k AGT 
- -t 1.360000000 -s 1 -d -1 -p cbr -e 1000 -c 2 -a 0 -i 65 -k AGT
h -t 1.360000000 -s 1 -d -1 -p cbr -e 1000 -c 2 -a 0 -i 65 -k AGT
+ -t 1.360000000 -s 1 -d 2 -p cbr -e 1020 -c 2 -a 0 -i 65 -k RTR 
- -t 1.360000000 -s 1 -d 2 -p cbr -e 1020 -c 2 -a 0 -i 65 -k RTR
h -t 1.360000000 -s 1 -d 2 -p cbr -e 1020 -c 2 -a 0 -i 65 -k RTR