M 0.10000 0 (599.00, 499.00, 0.00), (550.00, 500.00), 10.00
M 0.10000 1 (772.00, 576.00, 0.00), (700.00, 500.00), 20.00
M 0.10000 2 (976.00, 546.00, 0.00), (1100.00, 650.00), 30.00
s 1.000000000 _0_ AGT  --- 0 tcp 40 [0 0 0 0] ------- [0:0 1:0 32 0] [0 0] 0 0
r 1.000000000 _0_ RTR  --- 0 tcp 40 [0 0 0 0] ------- [0:0 1:0 32 0] [0 0] 0 0
s 1.000000000 _1_ AGT  --- 1 cbr 1000 [0 0 0 0] ------- [1:1 2:0 32 0] [0] 0 0
r 1.000000000 _1_ RTR  --- 1 cbr 1000 [0 0 0 0] ------- [1:1 2:0 32 0] [0] 0 0
s 1.000000000 _0_ RTR  --- 0 AODV 48 [0 0 0 0] ------- [0:255 -1:255 30 0] [0x2 1 1 [1 0] [0 4]] (REQUEST)
s 1.000000000 _1_ RTR  --- 0 AODV 48 [0 0 0 0] ------- [1:255 -1:255 30 0] [0x2 1 1 [2 0] [1 4]] (REQUEST)
r 1.000988604 _1_ RTR  --- 0 AODV 48 [0 ffffffff 0 800] ------- [0:255 -1:255 30 0] [0x2 1 1 [1 0] [0 4]] (REQUEST)
s 1.000988604 _1_ RTR  --- 0 AODV 44 [0 0 0 0] ------- [1:255 0:255 30 0] [0x4 1 [1 6] 10.000000] (REPLY)
r 1.002407208 _0_ RTR  --- 0 AODV 48 [0 ffffffff 1 800] ------- [1:255 -1:255 30 0] [0x2 1 1 [2 0] [1 4]] (REQUEST)
s 1.002407208 _0_ RTR  --- 0 tcp 40 [0 0 0 0] ------- [0:0 1:0 30 1] [0 0] 0 0
r 1.002407394 _2_ RTR  --- 0 AODV 48 [0 ffffffff 1 800] ------- [1:255 -1:255 30 0] [0x2 1 1 [2 0] [1 4]] (REQUEST)
s 1.002407394 _2_ RTR  --- 0 AODV 44 [0 0 0 0] ------- [2:255 1:255 30 1] [0x4 1 [2 4] 10.000000] (REPLY)
r 1.006796975 _1_ RTR  --- 0 AODV 44 [13a 1 2 800] ------- [2:255 1:255 30 1] [0x4 1 [2 4] 10.000000] (REPLY)
s 1.006796975 _1_ RTR  --- 1 cbr 1020 [0 0 0 0] ------- [1:1 2:0 30 2] [0] 0 0
s 1.008000000 _1_ AGT  --- 2 cbr 1000 [0 0 0 0] ------- [1:1 2:0 32 0] [1] 0 0
r 1.008000000 _1_ RTR  --- 2 cbr 1000 [0 0 0 0] ------- [1:1 2:0 32 0] [1] 0 0
s 1.008000000 _1_ RTR  --- 2 cbr 1020 [0 0 0 0] ------- [1:1 2:0 30 2] [1] 0 0
r 1.008714787 _0_ RTR  --- 0 AODV 44 [13a 0 1 800] ------- [1:255 0:255 30 0] [0x4 1 [1 6] 10.000000] (REPLY)
s 1.010398763 _0_ RTR  --- 0 AODV 48 [0 ffffffff 1 800] ------- [0:255 -1:255 29 0] [0x2 2 1 [2 0] [1 4]] (REQUEST)
r 1.012331013 _1_ AGT  --- 0 tcp 40 [13a 1 0 800] ------- [0:0 1:0 30 1] [0 0] 1 0
s 1.012331013 _1_ AGT  --- 3 ack 40 [0 0 0 0] ------- [1:0 0:0 32 0] [0 0] 0 0
r 1.012331013 _1_ RTR  --- 3 ack 40 [0 0 0 0] ------- [1:0 0:0 32 0] [0 0] 0 0
s 1.012331013 _1_ RTR  --- 3 ack 40 [0 0 0 0] ------- [1:0 0:0 30 0] [0 0] 0 0
r 1.013704220 _1_ RTR  --- 0 AODV 48 [0 ffffffff 0 800] ------- [0:255 -1:255 29 0] [0x2 2 1 [2 0] [1 4]] (REQUEST)
s 1.016000000 _1_ AGT  --- 4 cbr 1000 [0 0 0 0] ------- [1:1 2:0 32 0] [2] 0 0
r 1.016000000 _1_ RTR  --- 4 cbr 1000 [0 0 0 0] ------- [1:1 2:0 32 0] [2] 0 0
s 1.016000000 _1_ RTR  --- 4 cbr 1020 [0 0 0 0] ------- [1:1 2:0 30 2] [2] 0 0
s 1.024000000 _1_ AGT  --- 5 cbr 1000 [0 0 0 0] ------- [1:1 2:0 32 0] [3] 0 0
r 1.024000000 _1_ RTR  --- 5 cbr 1000 [0 0 0 0] ------- [1:1 2:0 32 0] [3] 0 0
s 1.024000000 _1_ RTR  --- 5 cbr 1020 [0 0 0 0] ------- [1:1 2:0 30 2] [3] 0 0
r 1.027076973 _2_ AGT  --- 1 cbr 1020 [13a 2 1 800] ------- [1:1 2:0 30 2] [0] 1 0
s 1.032000000 _1_ AGT  --- 6 cbr 1000 [0 0 0 0] ------- [1:1 2:0 32 0] [4] 0 0
r 1.032000000 _1_ RTR  --- 6 cbr 1000 [0 0 0 0] ------- [1:1 2:0 32 0] [4] 0 0
s 1.032000000 _1_ RTR  --- 6 cbr 1020 [0 0 0 0] ------- [1:1 2:0 30 2] [4] 0 0
r 1.037224148 _2_ AGT  --- 2 cbr 1020 [13a 2 1 800] ------- [1:1 2:0 30 2] [1] 1 0
r 1.039390752 _0_ AGT  --- 3 ack 40 [13a 0 1 800] ------- [1:0 0:0 30 0] [0 0] 1 0
s 1.039390752 _0_ AGT  --- 7 tcp 1540 [0 0 0 0] ------- [0:0 1:0 32 0] [1 0] 0 0
r 1.039390752 _0_ RTR  --- 7 tcp 1540 [0 0 0 0] ------- [0:0 1:0 32 0] [1 0] 0 0
s 1.039390752 _0_ AGT  --- 8 tcp 1540 [0 0 0 0] ------- [0:0 1:0 32 0] [2 0] 0 0
r 1.039390752 _0_ RTR  --- 8 tcp 1540 [0 0 0 0] ------- [0:0 1:0 32 0] [2 0] 0 0
s 1.039390752 _0_ RTR  --- 7 tcp 1540 [0 0 0 0] ------- [0:0 1:0 30 1] [1 0] 0 0
s 1.039390752 _0_ RTR  --- 8 tcp 1540 [0 0 0 0] ------- [0:0 1:0 30 1] [2 0] 0 0
s 1.040000000 _1_ AGT  --- 9 cbr 1000 [0 0 0 0] ------- [1:1 2:0 32 0] [5] 0 0
r 1.040000000 _1_ RTR  --- 9 cbr 1000 [0 0 0 0] ------- [1:1 2:0 32 0] [5] 0 0
s 1.040000000 _1_ RTR  --- 9 cbr 1020 [0 0 0 0] ------- [1:1 2:0 30 2] [5] 0 0
s 1.048000000 _1_ AGT  --- 10 cbr 1000 [0 0 0 0] ------- [1:1 2:0 32 0] [6] 0 0
r 1.048000000 _1_ RTR  --- 10 cbr 1000 [0 0 0 0] ------- [1:1 2:0 32 0] [6] 0 0
s 1.048000000 _1_ RTR  --- 10 cbr 1020 [0 0 0 0] ------- [1:1 2:0 30 2] [6] 0 0
r 1.053336560 _1_ AGT  --- 7 tcp 1540 [13a 1 0 800] ------- [0:0 1:0 30 1] [1 0] 1 0
s 1.053336560 _1_ AGT  --- 11 ack 40 [0 0 0 0] ------- [1:0 0:0 32 0] [1 0] 0 0
r 1.053336560 _1_ RTR  --- 11 ack 40 [0 0 0 0] ------- [1:0 0:0 32 0] [1 0] 0 0
s 1.053336560 _1_ RTR  --- 11 ack 40 [0 0 0 0] ------- [1:0 0:0 30 0] [1 0] 0 0
s 1.056000000 _1_ AGT  --- 12 cbr 1000 [0 0 0 0] ------- [1:1 2:0 32 0] [7] 0 0
r 1.056000000 _1_ RTR  --- 12 cbr 1000 [0 0 0 0] ------- [1:1 2:0 32 0] [7] 0 0
s 1.056000000 _1_ RTR  --- 12 cbr 1020 [0 0 0 0] ------- [1:1 2:0 30 2] [7] 0 0
s 1.064000000 _1_ AGT  --- 13 cbr 1000 [0 0 0 0] ------- [1:1 2:0 32 0] [8] 0 0
r 1.064000000 _1_ RTR  --- 13 cbr 1000 [0 0 0 0] ------- [1:1 2:0 32 0] [8] 0 0
s 1.064000000 _1_ RTR  --- 13 cbr 1020 [0 0 0 0] ------- [1:1 2:0 30 2] [8] 0 0
r 1.067362970 _1_ AGT  --- 8 tcp 1540 [13a 1 0 800] ------- [0:0 1:0 30 1] [2 0] 1 0
s 1.067362970 _1_ AGT  --- 14 ack 40 [0 0 0 0] ------- [1:0 0:0 32 0] [2 0] 0 0
r 1.067362970 _1_ RTR  --- 14 ack 40 [0 0 0 0] ------- [1:0 0:0 32 0] [2 0] 0 0
s 1.067362970 _1_ RTR  --- 14 ack 40 [0 0 0 0] ------- [1:0 0:0 30 0] [2 0] 0 0
s 1.072000000 _1_ AGT  --- 15 cbr 1000 [0 0 0 0] ------- [1:1 2:0 32 0] [9] 0 0
r 1.072000000 _1_ RTR  --- 15 cbr 1000 [0 0 0 0] ------- [1:1 2:0 32 0] [9] 0 0
s 1.072000000 _1_ RTR  --- 15 cbr 1020 [0 0 0 0] ------- [1:1 2:0 30 2] [9] 0 0
r 1.077049366 _2_ AGT  --- 4 cbr 1020 [13a 2 1 800] ------- [1:1 2:0 30 2] [2] 1 0
s 1.080000000 _1_ AGT  --- 16 cbr 1000 [0 0 0 0] ------- [1:1 2:0 32 0] [10] 0 0
r 1.080000000 _1_ RTR  --- 16 cbr 1000 [0 0 0 0] ------- [1:1 2:0 32 0] [10] 0 0
s 1.080000000 _1_ RTR  --- 16 cbr 1020 [0 0 0 0] ------- [1:1 2:0 30 2] [10] 0 0
r 1.086736565 _2_ AGT  --- 5 cbr 1020 [13a 2 1 800] ------- [1:1 2:0 30 2] [3] 1 0
s 1.088000000 _1_ AGT  --- 17 cbr 1000 [0 0 0 0] ------- [1:1 2:0 32 0] [11] 0 0
r 1.088000000 _1_ RTR  --- 17 cbr 1000 [0 0 0 0] ------- [1:1 2:0 32 0] [11] 0 0
s 1.088000000 _1_ RTR  --- 17 cbr 1020 [0 0 0 0] ------- [1:1 2:0 30 2] [11] 0 0
s 1.096000000 _1_ AGT  --- 18 cbr 1000 [0 0 0 0] ------- [1:1 2:0 32 0] [12] 0 0
r 1.096000000 _1_ RTR  --- 18 cbr 1000 [0 0 0 0] ------- [1:1 2:0 32 0] [12] 0 0
s 1.096000000 _1_ RTR  --- 18 cbr 1020 [0 0 0 0] ------- [1:1 2:0 30 2] [12] 0 0
r 1.096643769 _2_ AGT  --- 6 cbr 1020 [13a 2 1 800] ------- [1:1 2:0 30 2] [4] 1 0
s 1.104000000 _1_ AGT  --- 19 cbr 1000 [0 0 0 0] ------- [1:1 2:0 32 0] [13] 0 0
r 1.104000000 _1_ RTR  --- 19 cbr 1000 [0 0 0 0] ------- [1:1 2:0 32 0] [13] 0 0
s 1.104000000 _1_ RTR  --- 19 cbr 1020 [0 0 0 0] ------- [1:1 2:0 30 2] [13] 0 0
r 1.106750978 _2_ AGT  --- 9 cbr 1020 [13a 2 1 800] ------- [1:1 2:0 30 2] [5] 1 0
s 1.112000000 _1_ AGT  --- 20 cbr 1000 [0 0 0 0] ------- [1:1 2:0 32 0] [14] 0 0
r 1.112000000 _1_ RTR  --- 20 cbr 1000 [0 0 0 0] ------- [1:1 2:0 32 0] [14] 0 0
s 1.112000000 _1_ RTR  --- 20 cbr 1020 [0 0 0 0] ------- [1:1 2:0 30 2] [14] 0 0
r 1.116598192 _2_ AGT  --- 10 cbr 1020 [13a 2 1 800] ------- [1:1 2:0 30 2] [6] 1 0
r 1.119004798 _0_ AGT  --- 11 ack 40 [13a 0 1 800] ------- [1:0 0:0 30 0] [1 0] 1 0
s 1.119004798 _0_ AGT  --- 21 tcp 1540 [0 0 0 0] ------- [0:0 1:0 32 0] [3 0] 0 0
r 1.119004798 _0_ RTR  --- 21 tcp 1540 [0 0 0 0] ------- [0:0 1:0 32 0] [3 0] 0 0
s 1.119004798 _0_ AGT  --- 22 tcp 1540 [0 0 0 0] ------- [0:0 1:0 32 0] [4 0] 0 0
r 1.119004798 _0_ RTR  --- 22 tcp 1540 [0 0 0 0] ------- [0:0 1:0 32 0] [4 0] 0 0
s 1.119004798 _0_ RTR  --- 21 tcp 1540 [0 0 0 0] ------- [0:0 1:0 30 1] [3 0] 0 0
s 1.119004798 _0_ RTR  --- 22 tcp 1540 [0 0 0 0] ------- [0:0 1:0 30 1] [4 0] 0 0
s 1.120000000 _1_ AGT  --- 23 cbr 1000 [0 0 0 0] ------- [1:1 2:0 32 0] [15] 0 0
r 1.120000000 _1_ RTR  --- 23 cbr 1000 [0 0 0 0] ------- [1:1 2:0 32 0] [15] 0 0
s 1.120000000 _1_ RTR  --- 23 cbr 1020 [0 0 0 0] ------- [1:1 2:0 30 2] [15] 0 0
s 1.128000000 _1_ AGT  --- 24 cbr 1000 [0 0 0 0] ------- [1:1 2:0 32 0] [16] 0 0
r 1.128000000 _1_ RTR  --- 24 cbr 1000 [0 0 0 0] ------- [1:1 2:0 32 0] [16] 0 0
s 1.128000000 _1_ RTR  --- 24 cbr 1020 [0 0 0 0] ------- [1:1 2:0 30 2] [16] 0 0
r 1.133230600 _1_ AGT  --- 21 tcp 1540 [13a 1 0 800] ------- [0:0 1:0 30 1] [3 0] 1 0
s 1.133230600 _1_ AGT  --- 25 ack 40 [0 0 0 0] ------- [1:0 0:0 32 0] [3 0] 0 0
r 1.133230600 _1_ RTR  --- 25 ack 40 [0 0 0 0] ------- [1:0 0:0 32 0] [3 0] 0 0
s 1.133230600 _1_ RTR  --- 25 ack 40 [0 0 0 0] ------- [1:0 0:0 30 0] [3 0] 0 0
s 1.136000000 _1_ AGT  --- 26 cbr 1000 [0 0 0 0] ------- [1:1 2:0 32 0] [17] 0 0
r 1.136000000 _1_ RTR  --- 26 cbr 1000 [0 0 0 0] ------- [1:1 2:0 32 0] [17] 0 0
s 1.136000000 _1_ RTR  --- 26 cbr 1020 [0 0 0 0] ------- [1:1 2:0 30 2] [17] 0 0
r 1.143057020 _2_ AGT  --- 12 cbr 1020 [13a 2 1 800] ------- [1:1 2:0 30 2] [7] 1 0
s 1.144000000 _1_ AGT  --- 27 cbr 1000 [0 0 0 0] ------- [1:1 2:0 32 0] [18] 0 0
r 1.144000000 _1_ RTR  --- 27 cbr 1000 [0 0 0 0] ------- [1:1 2:0 32 0] [18] 0 0
s 1.144000000 _1_ RTR  --- 27 cbr 1020 [0 0 0 0] ------- [1:1 2:0 30 2] [18] 0 0
s 1.152000000 _1_ AGT  --- 28 cbr 1000 [0 0 0 0] ------- [1:1 2:0 32 0] [19] 0 0
r 1.152000000 _1_ RTR  --- 28 cbr 1000 [0 0 0 0] ------- [1:1 2:0 32 0] [19] 0 0
s 1.152000000 _1_ RTR  --- 28 cbr 1020 [0 0 0 0] ------- [1:1 2:0 30 2] [19] 0 0
r 1.152764252 _2_ AGT  --- 13 cbr 1020 [13a 2 1 800] ------- [1:1 2:0 30 2] [8] 1 0
r 1.154890860 _0_ AGT  --- 14 ack 40 [13a 0 1 800] ------- [1:0 0:0 30 0] [2 0] 1 0
s 1.154890860 _0_ AGT  --- 29 tcp 1540 [0 0 0 0] ------- [0:0 1:0 32 0] [5 0] 0 0
r 1.154890860 _0_ RTR  --- 29 tcp 1540 [0 0 0 0] ------- [0:0 1:0 32 0] [5 0] 0 0
s 1.154890860 _0_ AGT  --- 30 tcp 1540 [0 0 0 0] ------- [0:0 1:0 32 0] [6 0] 0 0
r 1.154890860 _0_ RTR  --- 30 tcp 1540 [0 0 0 0] ------- [0:0 1:0 32 0] [6 0] 0 0
s 1.154890860 _0_ RTR  --- 29 tcp 1540 [0 0 0 0] ------- [0:0 1:0 30 1] [5 0] 0 0
s 1.154890860 _0_ RTR  --- 30 tcp 1540 [0 0 0 0] ------- [0:0 1:0 30 1] [6 0] 0 0
s 1.160000000 _1_ AGT  --- 31 cbr 1000 [0 0 0 0] ------- [1:1 2:0 32 0] [20] 0 0
r 1.160000000 _1_ RTR  --- 31 cbr 1000 [0 0 0 0] ------- [1:1 2:0 32 0] [20] 0 0
s 1.160000000 _1_ RTR  --- 31 cbr 1020 [0 0 0 0] ------- [1:1 2:0 30 2] [20] 0 0
s 1.168000000 _1_ AGT  --- 32 cbr 1000 [0 0 0 0] ------- [1:1 2:0 32 0] [21] 0 0
r 1.168000000 _1_ RTR  --- 32 cbr 1000 [0 0 0 0] ------- [1:1 2:0 32 0] [21] 0 0
s 1.168000000 _1_ RTR  --- 32 cbr 1020 [0 0 0 0] ------- [1:1 2:0 30 2] [21] 0 0
r 1.168936659 _1_ AGT  --- 22 tcp 1540 [13a 1 0 800] ------- [0:0 1:0 30 1] [4 0] 1 0
s 1.168936659 _1_ AGT  --- 33 ack 40 [0 0 0 0] ------- [1:0 0:0 32 0] [4 0] 0 0
r 1.168936659 _1_ RTR  --- 33 ack 40 [0 0 0 0] ------- [1:0 0:0 32 0] [4 0] 0 0
s 1.168936659 _1_ RTR  --- 33 ack 40 [0 0 0 0] ------- [1:0 0:0 30 0] [4 0] 0 0
s 1.176000000 _1_ AGT  --- 34 cbr 1000 [0 0 0 0] ------- [1:1 2:0 32 0] [22] 0 0
r 1.176000000 _1_ RTR  --- 34 cbr 1000 [0 0 0 0] ------- [1:1 2:0 32 0] [22] 0 0
s 1.176000000 _1_ RTR  --- 34 cbr 1020 [0 0 0 0] ------- [1:1 2:0 30 2] [22] 0 0
r 1.182903055 _1_ AGT  --- 29 tcp 1540 [13a 1 0 800] ------- [0:0 1:0 30 1] [5 0] 1 0
s 1.182903055 _1_ AGT  --- 35 ack 40 [0 0 0 0] ------- [1:0 0:0 32 0] [5 0] 0 0
r 1.182903055 _1_ RTR  --- 35 ack 40 [0 0 0 0] ------- [1:0 0:0 32 0] [5 0] 0 0
s 1.182903055 _1_ RTR  --- 35 ack 40 [0 0 0 0] ------- [1:0 0:0 30 0] [5 0] 0 0
s 1.184000000 _1_ AGT  --- 36 cbr 1000 [0 0 0 0] ------- [1:1 2:0 32 0] [23] 0 0
r 1.184000000 _1_ RTR  --- 36 cbr 1000 [0 0 0 0] ------- [1:1 2:0 32 0] [23] 0 0
s 1.184000000 _1_ RTR  --- 36 cbr 1020 [0 0 0 0] ------- [1:1 2:0 30 2] [23] 0 0
s 1.192000000 _1_ AGT  --- 37 cbr 1000 [0 0 0 0] ------- [1:1 2:0 32 0] [24] 0 0
r 1.192000000 _1_ RTR  --- 37 cbr 1000 [0 0 0 0] ------- [1:1 2:0 32 0] [24] 0 0
s 1.192000000 _1_ RTR  --- 37 cbr 1020 [0 0 0 0] ------- [1:1 2:0 30 2] [24] 0 0
r 1.192589494 _2_ AGT  --- 15 cbr 1020 [13a 2 1 800] ------- [1:1 2:0 30 2] [9] 1 0
s 1.200000000 _1_ AGT  --- 38 cbr 1000 [0 0 0 0] ------- [1:1 2:0 32 0] [25] 0 0
r 1.200000000 _1_ RTR  --- 38 cbr 1000 [0 0 0 0] ------- [1:1 2:0 32 0] [25] 0 0
s 1.200000000 _1_ RTR  --- 38 cbr 1020 [0 0 0 0] ------- [1:1 2:0 30 2] [25] 0 0
r 1.202536751 _2_ AGT  --- 16 cbr 1020 [13a 2 1 800] ------- [1:1 2:0 30 2] [10] 1 0
s 1.208000000 _1_ AGT  --- 39 cbr 1000 [0 0 0 0] ------- [1:1 2:0 32 0] [26] 0 0
r 1.208000000 _1_ RTR  --- 39 cbr 1000 [0 0 0 0] ------- [1:1 2:0 32 0] [26] 0 0
s 1.208000000 _1_ RTR  --- 39 cbr 1020 [0 0 0 0] ------- [1:1 2:0 30 2] [26] 0 0
r 1.212404013 _2_ AGT  --- 17 cbr 1020 [13a 2 1 800] ------- [1:1 2:0 30 2] [11] 1 0
s 1.216000000 _1_ AGT  --- 40 cbr 1000 [0 0 0 0] ------- [1:1 2:0 32 0] [27] 0 0
r 1.216000000 _1_ RTR  --- 40 cbr 1000 [0 0 0 0] ------- [1:1 2:0 32 0] [27] 0 0
s 1.216000000 _1_ RTR  --- 40 cbr 1020 [0 0 0 0] ------- [1:1 2:0 30 2] [27] 0 0
r 1.222171280 _2_ AGT  --- 18 cbr 1020 [13a 2 1 800] ------- [1:1 2:0 30 2] [12] 1 0
s 1.224000000 _1_ AGT  --- 41 cbr 1000 [0 0 0 0] ------- [1:1 2:0 32 0] [28] 0 0
r 1.224000000 _1_ RTR  --- 41 cbr 1000 [0 0 0 0] ------- [1:1 2:0 32 0] [28] 0 0
s 1.224000000 _1_ RTR  --- 41 cbr 1020 [0 0 0 0] ------- [1:1 2:0 30 2] [28] 0 0
s 1.232000000 _1_ AGT  --- 42 cbr 1000 [0 0 0 0] ------- [1:1 2:0 32 0] [29] 0 0
r 1.232000000 _1_ RTR  --- 42 cbr 1000 [0 0 0 0] ------- [1:1 2:0 32 0] [29] 0 0
s 1.232000000 _1_ RTR  --- 42 cbr 1020 [0 0 0 0] ------- [1:1 2:0 30 2] [29] 0 0
r 1.236442472 _1_ AGT  --- 30 tcp 1540 [13a 1 0 800] ------- [0:0 1:0 30 1] [6 0] 1 0
s 1.236442472 _1_ AGT  --- 43 ack 40 [0 0 0 0] ------- [1:0 0:0 32 0] [6 0] 0 0
r 1.236442472 _1_ RTR  --- 43 ack 40 [0 0 0 0] ------- [1:0 0:0 32 0] [6 0] 0 0
s 1.236442472 _1_ RTR  --- 43 ack 40 [0 0 0 0] ------- [1:0 0:0 30 0] [6 0] 0 0
s 1.240000000 _1_ AGT  --- 44 cbr 1000 [0 0 0 0] ------- [1:1 2:0 32 0] [30] 0 0
r 1.240000000 _1_ RTR  --- 44 cbr 1000 [0 0 0 0] ------- [1:1 2:0 32 0] [30] 0 0
s 1.240000000 _1_ RTR  --- 44 cbr 1020 [0 0 0 0] ------- [1:1 2:0 30 2] [30] 0 0
r 1.246188931 _2_ AGT  --- 19 cbr 1020 [13a 2 1 800] ------- [1:1 2:0 30 2] [13] 1 0
s 1.248000000 _1_ AGT  --- 45 cbr 1000 [0 0 0 0] ------- [1:1 2:0 32 0] [31] 0 0
r 1.248000000 _1_ RTR  --- 45 cbr 1000 [0 0 0 0] ------- [1:1 2:0 32 0] [31] 0 0
s 1.248000000 _1_ RTR  --- 45 cbr 1020 [0 0 0 0] ------- [1:1 2:0 30 2] [31] 0 0
s 1.256000000 _1_ AGT  --- 46 cbr 1000 [0 0 0 0] ------- [1:1 2:0 32 0] [32] 0 0
r 1.256000000 _1_ RTR  --- 46 cbr 1000 [0 0 0 0] ------- [1:1 2:0 32 0] [32] 0 0
s 1.256000000 _1_ RTR  --- 46 cbr 1020 [0 0 0 0] ------- [1:1 2:0 30 2] [32] 0 0
r 1.256056215 _2_ AGT  --- 20 cbr 1020 [13a 2 1 800] ------- [1:1 2:0 30 2] [14] 1 0
s 1.264000000 _1_ AGT  --- 47 cbr 1000 [0 0 0 0] ------- [1:1 2:0 32 0] [33] 0 0
r 1.264000000 _1_ RTR  --- 47 cbr 1000 [0 0 0 0] ------- [1:1 2:0 32 0] [33] 0 0
s 1.264000000 _1_ RTR  --- 47 cbr 1020 [0 0 0 0] ------- [1:1 2:0 30 2] [33] 0 0
r 1.266303504 _2_ AGT  --- 23 cbr 1020 [13a 2 1 800] ------- [1:1 2:0 30 2] [15] 1 0
s 1.272000000 _1_ AGT  --- 48 cbr 1000 [0 0 0 0] ------- [1:1 2:0 32 0] [34] 0 0
r 1.272000000 _1_ RTR  --- 48 cbr 1000 [0 0 0 0] ------- [1:1 2:0 32 0] [34] 0 0
s 1.272000000 _1_ RTR  --- 48 cbr 1020 [0 0 0 0] ------- [1:1 2:0 30 2] [34] 0 0
r 1.276030798 _2_ AGT  --- 24 cbr 1020 [13a 2 1 800] ------- [1:1 2:0 30 2] [16] 1 0
r 1.277977411 _0_ AGT  --- 25 ack 40 [13a 0 1 800] ------- [1:0 0:0 30 0] [3 0] 1 0
s 1.277977411 _0_ AGT  --- 49 tcp 1540 [0 0 0 0] ------- [0:0 1:0 32 0] [7 0] 0 0
r 1.277977411 _0_ RTR  --- 49 tcp 1540 [0 0 0 0] ------- [0:0 1:0 32 0] [7 0] 0 0
s 1.277977411 _0_ AGT  --- 50 tcp 1540 [0 0 0 0] ------- [0:0 1:0 32 0] [8 0] 0 0
r 1.277977411 _0_ RTR  --- 50 tcp 1540 [0 0 0 0] ------- [0:0 1:0 32 0] [8 0] 0 0
s 1.277977411 _0_ RTR  --- 49 tcp 1540 [0 0 0 0] ------- [0:0 1:0 30 1] [7 0] 0 0
s 1.277977411 _0_ RTR  --- 50 tcp 1540 [0 0 0 0] ------- [0:0 1:0 30 1] [8 0] 0 0
s 1.280000000 _1_ AGT  --- 51 cbr 1000 [0 0 0 0] ------- [1:1 2:0 32 0] [35] 0 0
r 1.280000000 _1_ RTR  --- 51 cbr 1000 [0 0 0 0] ------- [1:1 2:0 32 0] [35] 0 0
s 1.280000000 _1_ RTR  --- 51 cbr 1020 [0 0 0 0] ------- [1:1 2:0 30 2] [35] 0 0
s 1.288000000 _1_ AGT  --- 52 cbr 1000 [0 0 0 0] ------- [1:1 2:0 32 0] [36] 0 0
r 1.288000000 _1_ RTR  --- 52 cbr 1000 [0 0 0 0] ------- [1:1 2:0 32 0] [36] 0 0
s 1.288000000 _1_ RTR  --- 52 cbr 1020 [0 0 0 0] ------- [1:1 2:0 30 2] [36] 0 0
r 1.292143199 _1_ AGT  --- 49 tcp 1540 [13a 1 0 800] ------- [0:0 1:0 30 1] [7 0] 1 0
s 1.292143199 _1_ AGT  --- 53 ack 40 [0 0 0 0] ------- [1:0 0:0 32 0] [7 0] 0 0
r 1.292143199 _1_ RTR  --- 53 ack 40 [0 0 0 0] ------- [1:0 0:0 32 0] [7 0] 0 0
s 1.292143199 _1_ RTR  --- 53 ack 40 [0 0 0 0] ------- [1:0 0:0 30 0] [7 0] 0 0
s 1.296000000 _1_ AGT  --- 54 cbr 1000 [0 0 0 0] ------- [1:1 2:0 32 0] [37] 0 0
r 1.296000000 _1_ RTR  --- 54 cbr 1000 [0 0 0 0] ------- [1:1 2:0 32 0] [37] 0 0
s 1.296000000 _1_ RTR  --- 54 cbr 1020 [0 0 0 0] ------- [1:1 2:0 30 2] [37] 0 0
r 1.301989679 _2_ AGT  --- 26 cbr 1020 [13a 2 1 800] ------- [1:1 2:0 30 2] [17] 1 0
s 1.304000000 _1_ AGT  --- 55 cbr 1000 [0 0 0 0] ------- [1:1 2:0 32 0] [38] 0 0
r 1.304000000 _1_ RTR  --- 55 cbr 1000 [0 0 0 0] ------- [1:1 2:0 32 0] [38] 0 0
s 1.304000000 _1_ RTR  --- 55 cbr 1020 [0 0 0 0] ------- [1:1 2:0 30 2] [38] 0 0
r 1.311836992 _2_ AGT  --- 27 cbr 1020 [13a 2 1 800] ------- [1:1 2:0 30 2] [18] 1 0
s 1.312000000 _1_ AGT  --- 56 cbr 1000 [0 0 0 0] ------- [1:1 2:0 32 0] [39] 0 0
r 1.312000000 _1_ RTR  --- 56 cbr 1000 [0 0 0 0] ------- [1:1 2:0 32 0] [39] 0 0
s 1.312000000 _1_ RTR  --- 56 cbr 1020 [0 0 0 0] ------- [1:1 2:0 30 2] [39] 0 0
s 1.320000000 _1_ AGT  --- 57 cbr 1000 [0 0 0 0] ------- [1:1 2:0 32 0] [40] 0 0
r 1.320000000 _1_ RTR  --- 57 cbr 1000 [0 0 0 0] ------- [1:1 2:0 32 0] [40] 0 0
s 1.320000000 _1_ RTR  --- 57 cbr 1020 [0 0 0 0] ------- [1:1 2:0 30 2] [40] 0 0
r 1.321784309 _2_ AGT  --- 28 cbr 1020 [13a 2 1 800] ------- [1:1 2:0 30 2] [19] 1 0
s 1.328000000 _1_ AGT  --- 58 cbr 1000 [0 0 0 0] ------- [1:1 2:0 32 0] [41] 0 0
r 1.328000000 _1_ RTR  --- 58 cbr 1000 [0 0 0 0] ------- [1:1 2:0 32 0] [41] 0 0
s 1.328000000 _1_ RTR  --- 58 cbr 1020 [0 0 0 0] ------- [1:1 2:0 30 2] [41] 0 0
r 1.331931631 _2_ AGT  --- 31 cbr 1020 [13a 2 1 800] ------- [1:1 2:0 30 2] [20] 1 0
s 1.336000000 _1_ AGT  --- 59 cbr 1000 [0 0 0 0] ------- [1:1 2:0 32 0] [42] 0 0
r 1.336000000 _1_ RTR  --- 59 cbr 1000 [0 0 0 0] ------- [1:1 2:0 32 0] [42] 0 0
s 1.336000000 _1_ RTR  --- 59 cbr 1020 [0 0 0 0] ------- [1:1 2:0 30 2] [42] 0 0
r 1.341598959 _2_ AGT  --- 32 cbr 1020 [13a 2 1 800] ------- [1:1 2:0 30 2] [21] 1 0
r 1.343645574 _0_ AGT  --- 33 ack 40 [13a 0 1 800] ------- [1:0 0:0 30 0] [4 0] 1 0
s 1.343645574 _0_ AGT  --- 60 tcp 1540 [0 0 0 0] ------- [0:0 1:0 32 0] [9 0] 0 0
r 1.343645574 _0_ RTR  --- 60 tcp 1540 [0 0 0 0] ------- [0:0 1:0 32 0] [9 0] 0 0
s 1.343645574 _0_ AGT  --- 61 tcp 1540 [0 0 0 0] ------- [0:0 1:0 32 0] [10 0] 0 0
r 1.343645574 _0_ RTR  --- 61 tcp 1540 [0 0 0 0] ------- [0:0 1:0 32 0] [10 0] 0 0
s 1.343645574 _0_ RTR  --- 60 tcp 1540 [0 0 0 0] ------- [0:0 1:0 30 1] [9 0] 0 0
s 1.343645574 _0_ RTR  --- 61 tcp 1540 [0 0 0 0] ------- [0:0 1:0 30 1] [10 0] 0 0
s 1.344000000 _1_ AGT  --- 62 cbr 1000 [0 0 0 0] ------- [1:1 2:0 32 0] [43] 0 0
r 1.344000000 _1_ RTR  --- 62 cbr 1000 [0 0 0 0] ------- [1:1 2:0 32 0] [43] 0 0
s 1.344000000 _1_ RTR  --- 62 cbr 1020 [0 0 0 0] ------- [1:1 2:0 30 2] [43] 0 0
s 1.352000000 _1_ AGT  --- 63 cbr 1000 [0 0 0 0] ------- [1:1 2:0 32 0] [44] 0 0
r 1.352000000 _1_ RTR  --- 63 cbr 1000 [0 0 0 0] ------- [1:1 2:0 32 0] [44] 0 0
s 1.352000000 _1_ RTR  --- 63 cbr 1020 [0 0 0 0] ------- [1:1 2:0 30 2] [44] 0 0
r 1.357491357 _1_ AGT  --- 50 tcp 1540 [13a 1 0 800] ------- [0:0 1:0 30 1] [8 0] 1 0
s 1.357491357 _1_ AGT  --- 64 ack 40 [0 0 0 0] ------- [1:0 0:0 32 0] [8 0] 0 0
r 1.357491357 _1_ RTR  --- 64 ack 40 [0 0 0 0] ------- [1:0 0:0 32 0] [8 0] 0 0
s 1.357491357 _1_ RTR  --- 64 ack 40 [0 0 0 0] ------- [1:0 0:0 30 0] [8 0] 0 0
s 1.360000000 _1_ AGT  --- 65 cbr 1000 [0 0 0 0] ------- [1:1 2:0 32 0] [45] 0 0
r 1.360000000 _1_ RTR  --- 65 cbr 1000 [0 0 0 0] ------- [1:1 2:0 32 0] [45] 0 0
s 1.360000000 _1_ RTR  --- 65 cbr 1020 [0 0 0 0] ------- [1:1 2:0 30 2] [45] 0 0
s 1.368000000 _1_ AGT  --- 66 cbr 1000 [0 0 0 0] ------- [1:1 2:0 32 0] [46] 0 0
r 1.368000000 _1_ RTR  --- 66 cbr 1000 [0 0 0 0] ------- [1:1 2:0 32 0] [46] 0 0
s 1.368000000 _1_ RTR  --- 66 cbr 1020 [0 0 0 0] ------- [1:1 2:0 30 2] [46] 0 0
r 1.371477732 _1_ AGT  --- 60 tcp 1540 [13a 1 0 800] ------- [0:0 1:0 30 1] [9 0] 1 0
s 1.371477732 _1_ AGT  --- 67 ack 40 [0 0 0 0] ------- [1:0 0:0 32 0] [9 0] 0 0
r 1.371477732 _1_ RTR  --- 67 ack 40 [0 0 0 0] ------- [1:0 0:0 32 0] [9 0] 0 0
s 1.371477732 _1_ RTR  --- 67 ack 40 [0 0 0 0] ------- [1:0 0:0 30 0] [9 0] 0 0
s 1.376000000 _1_ AGT  --- 68 cbr 1000 [0 0 0 0] ------- [1:1 2:0 32 0] [47] 0 0
r 1.376000000 _1_ RTR  --- 68 cbr 1000 [0 0 0 0] ------- [1:1 2:0 32 0] [47] 0 0
s 1.376000000 _1_ RTR  --- 68 cbr 1020 [0 0 0 0] ------- [1:1 2:0 30 2] [47] 0 0
s 1.384000000 _1_ AGT  --- 69 cbr 1000 [0 0 0 0] ------- [1:1 2:0 32 0] [48] 0 0
r 1.384000000 _1_ RTR  --- 69 cbr 1000 [0 0 0 0] ------- [1:1 2:0 32 0] [48] 0 0
s 1.384000000 _1_ RTR  --- 69 cbr 1020 [0 0 0 0] ------- [1:1 2:0 30 2] [48] 0 0
s 1.392000000 _1_ AGT  --- 70 cbr 1000 [0 0 0 0] ------- [1:1 2:0 32 0] [49] 0 0
r 1.392000000 _1_ RTR  --- 70 cbr 1000 [0 0 0 0] ------- [1:1 2:0 32 0] [49] 0 0
s 1.392000000 _1_ RTR  --- 70 cbr 1020 [0 0 0 0] ------- [1:1 2:0 30 2] [49] 0 0
s 1.400000000 _1_ AGT  --- 71 cbr 1000 [0 0 0 0] ------- [1:1 2:0 32 0] [50] 0 0
r 1.400000000 _1_ RTR  --- 71 cbr 1000 [0 0 0 0] ------- [1:1 2:0 32 0] [50] 0 0
s 1.400000000 _1_ RTR  --- 71 cbr 1020 [0 0 0 0] ------- [1:1 2:0 30 2] [50] 0 0
D 1.406546732 _1_ RTR  CBK 34 cbr 1020 [13a 2 1 800] ------- [1:1 2:0 30 2] [22] 0 0
D 1.406546732 _1_ RTR  CBK 36 cbr 1020 [0 2 1 800] ------- [1:1 2:0 30 2] [23] 0 0
D 1.406546732 _1_ RTR  CBK 37 cbr 1020 [0 2 1 800] ------- [1:1 2:0 30 2] [24] 0 0
D 1.406546732 _1_ RTR  CBK 38 cbr 1020 [0 2 1 800] ------- [1:1 2:0 30 2] [25] 0 0
D 1.406546732 _1_ RTR  CBK 39 cbr 1020 [0 2 1 800] ------- [1:1 2:0 30 2] [26] 0 0
D 1.406546732 _1_ RTR  CBK 40 cbr 1020 [0 2 1 800] ------- [1:1 2:0 30 2] [27] 0 0
D 1.406546732 _1_ RTR  CBK 41 cbr 1020 [0 2 1 800] ------- [1:1 2:0 30 2] [28] 0 0
D 1.406546732 _1_ RTR  CBK 42 cbr 1020 [0 2 1 800] ------- [1:1 2:0 30 2] [29] 0 0
D 1.406546732 _1_ RTR  CBK 44 cbr 1020 [0 2 1 800] ------- [1:1 2:0 30 2] [30] 0 0
D 1.406546732 _1_ RTR  CBK 45 cbr 1020 [0 2 1 800] ------- [1:1 2:0 30 2] [31] 0 0
D 1.406546732 _1_ RTR  CBK 46 cbr 1020 [0 2 1 800] ------- [1:1 2:0 30 2] [32] 0 0
D 1.406546732 _1_ RTR  CBK 47 cbr 1020 [0 2 1 800] ------- [1:1 2:0 30 2] [33] 0 0
D 1.406546732 _1_ RTR  CBK 48 cbr 1020 [0 2 1 800] ------- [1:1 2:0 30 2] [34] 0 0
D 1.406546732 _1_ RTR  CBK 51 cbr 1020 [0 2 1 800] ------- [1:1 2:0 30 2] [35] 0 0
D 1.406546732 _1_ RTR  CBK 52 cbr 1020 [0 2 1 800] ------- [1:1 2:0 30 2] [36] 0 0
D 1.406546732 _1_ RTR  CBK 54 cbr 1020 [0 2 1 800] ------- [1:1 2:0 30 2] [37] 0 0
D 1.406546732 _1_ RTR  CBK 55 cbr 1020 [0 2 1 800] ------- [1:1 2:0 30 2] [38] 0 0
D 1.406546732 _1_ RTR  CBK 56 cbr 1020 [0 2 1 800] ------- [1:1 2:0 30 2] [39] 0 0
D 1.406546732 _1_ RTR  CBK 57 cbr 1020 [0 2 1 800] ------- [1:1 2:0 30 2] [40] 0 0
D 1.406546732 _1_ RTR  CBK 58 cbr 1020 [0 2 1 800] ------- [1:1 2:0 30 2] [41] 0 0
D 1.406546732 _1_ RTR  CBK 59 cbr 1020 [0 2 1 800] ------- [1:1 2:0 30 2] [42] 0 0
D 1.406546732 _1_ RTR  CBK 62 cbr 1020 [0 2 1 800] ------- [1:1 2:0 30 2] [43] 0 0
D 1.406546732 _1_ RTR  CBK 63 cbr 1020 [0 2 1 800] ------- [1:1 2:0 30 2] [44] 0 0
D 1.406546732 _1_ RTR  CBK 65 cbr 1020 [0 2 1 800] ------- [1:1 2:0 30 2] [45] 0 0
D 1.406546732 _1_ RTR  CBK 66 cbr 1020 [0 2 1 800] ------- [1:1 2:0 30 2] [46] 0 0
D 1.406546732 _1_ RTR  CBK 68 cbr 1020 [0 2 1 800] ------- [1:1 2:0 30 2] [47] 0 0
D 1.406546732 _1_ RTR  CBK 69 cbr 1020 [0 2 1 800] ------- [1:1 2:0 30 2] [48] 0 0
D 1.406546732 _1_ RTR  CBK 70 cbr 1020 [0 2 1 800] ------- [1:1 2:0 30 2] [49] 0 0
D 1.406546732 _1_ RTR  CBK 71 cbr 1020 [0 2 1 800] ------- [1:1 2:0 30 2] [50] 0 0
s 1.406546732 _1_ RTR  --- 0 AODV 32 [0 0 0 0] ------- [1:255 -1:255 1 0] [0x8 1 [2 0] 0.000000] (ERROR)
s 1.408000000 _1_ AGT  --- 72 cbr 1000 [0 0 0 0] ------- [1:1 2:0 32 0] [51] 0 0
r 1.408000000 _1_ RTR  --- 72 cbr 1000 [0 0 0 0] ------- [1:1 2:0 32 0] [51] 0 0
s 1.408000000 _1_ RTR  --- 0 AODV 48 [0 0 0 0] ------- [1:255 -1:255 3 0] [0x2 1 2 [2 5] [1 10]] (REQUEST)
s 1.416000000 _1_ AGT  --- 73 cbr 1000 [0 0 0 0] ------- [1:1 2:0 32 0] [52] 0 0
r 1.416000000 _1_ RTR  --- 73 cbr 1000 [0 0 0 0] ------- [1:1 2:0 32 0] [52] 0 0
s 1.424000000 _1_ AGT  --- 74 cbr 1000 [0 0 0 0] ------- [1:1 2:0 32 0] [53] 0 0
r 1.424000000 _1_ RTR  --- 74 cbr 1000 [0 0 0 0] ------- [1:1 2:0 32 0] [53] 0 0
r 1.429088101 _1_ AGT  --- 61 tcp 1540 [13a 1 0 800] ------- [0:0 1:0 30 1] [10 0] 1 0
s 1.429088101 _1_ AGT  --- 75 ack 40 [0 0 0 0] ------- [1:0 0:0 32 0] [10 0] 0 0
r 1.429088101 _1_ RTR  --- 75 ack 40 [0 0 0 0] ------- [1:0 0:0 32 0] [10 0] 0 0
s 1.429088101 _1_ RTR  --- 75 ack 40 [0 0 0 0] ------- [1:0 0:0 30 0] [10 0] 0 0
s 1.432000000 _1_ AGT  --- 76 cbr 1000 [0 0 0 0] ------- [1:1 2:0 32 0] [54] 0 0
r 1.432000000 _1_ RTR  --- 76 cbr 1000 [0 0 0 0] ------- [1:1 2:0 32 0] [54] 0 0
r 1.436333876 _0_ AGT  --- 35 ack 40 [13a 0 1 800] ------- [1:0 0:0 30 0] [5 0] 1 0
s 1.436333876 _0_ AGT  --- 77 tcp 1540 [0 0 0 0] ------- [0:0 1:0 32 0] [11 0] 0 0
r 1.436333876 _0_ RTR  --- 77 tcp 1540 [0 0 0 0] ------- [0:0 1:0 32 0] [11 0] 0 0
s 1.436333876 _0_ AGT  --- 78 tcp 1540 [0 0 0 0] ------- [0:0 1:0 32 0] [12 0] 0 0
r 1.436333876 _0_ RTR  --- 78 tcp 1540 [0 0 0 0] ------- [0:0 1:0 32 0] [12 0] 0 0
s 1.436333876 _0_ RTR  --- 77 tcp 1540 [0 0 0 0] ------- [0:0 1:0 30 1] [11 0] 0 0
s 1.436333876 _0_ RTR  --- 78 tcp 1540 [0 0 0 0] ------- [0:0 1:0 30 1] [12 0] 0 0
r 1.437667060 _0_ RTR  --- 0 AODV 48 [0 ffffffff 1 800] ------- [1:255 -1:255 3 0] [0x2 1 2 [2 5] [1 10]] (REQUEST)
r 1.438637060 _0_ RTR  --- 0 AODV 32 [0 ffffffff 1 800] ------- [1:255 -1:255 1 0] [0x8 1 [2 0] 0.000000] (ERROR)
s 1.440000000 _1_ AGT  --- 79 cbr 1000 [0 0 0 0] ------- [1:1 2:0 32 0] [55] 0 0
r 1.440000000 _1_ RTR  --- 79 cbr 1000 [0 0 0 0] ------- [1:1 2:0 32 0] [55] 0 0
r 1.440228243 _0_ AGT  --- 43 ack 40 [13a 0 1 800] ------- [1:0 0:0 30 0] [6 0] 1 0
s 1.440228243 _0_ AGT  --- 80 tcp 1540 [0 0 0 0] ------- [0:0 1:0 32 0] [13 0] 0 0
r 1.440228243 _0_ RTR  --- 80 tcp 1540 [0 0 0 0] ------- [0:0 1:0 32 0] [13 0] 0 0
s 1.440228243 _0_ AGT  --- 81 tcp 1540 [0 0 0 0] ------- [0:0 1:0 32 0] [14 0] 0 0
r 1.440228243 _0_ RTR  --- 81 tcp 1540 [0 0 0 0] ------- [0:0 1:0 32 0] [14 0] 0 0
s 1.440228243 _0_ RTR  --- 80 tcp 1540 [0 0 0 0] ------- [0:0 1:0 30 1] [13 0] 0 0
s 1.440228243 _0_ RTR  --- 81 tcp 1540 [0 0 0 0] ------- [0:0 1:0 30 1] [14 0] 0 0
s 1.445017971 _0_ RTR  --- 0 AODV 48 [0 ffffffff 1 800] ------- [0:255 -1:255 2 0] [0x2 2 2 [2 5] [1 10]] (REQUEST)
s 1.448000000 _1_ AGT  --- 82 cbr 1000 [0 0 0 0] ------- [1:1 2:0 32 0] [56] 0 0
r 1.448000000 _1_ RTR  --- 82 cbr 1000 [0 0 0 0] ------- [1:1 2:0 32 0] [56] 0 0
r 1.454154017 _1_ AGT  --- 77 tcp 1540 [13a 1 0 800] ------- [0:0 1:0 30 1] [11 0] 1 0
s 1.454154017 _1_ AGT  --- 83 ack 40 [0 0 0 0] ------- [1:0 0:0 32 0] [11 0] 0 0
r 1.454154017 _1_ RTR  --- 83 ack 40 [0 0 0 0] ------- [1:0 0:0 32 0] [11 0] 0 0
s 1.454154017 _1_ RTR  --- 83 ack 40 [0 0 0 0] ------- [1:0 0:0 30 0] [11 0] 0 0
s 1.456000000 _1_ AGT  --- 84 cbr 1000 [0 0 0 0] ------- [1:1 2:0 32 0] [57] 0 0
r 1.456000000 _1_ RTR  --- 84 cbr 1000 [0 0 0 0] ------- [1:1 2:0 32 0] [57] 0 0
s 1.456000000 _1_ RTR  --- 0 AODV 48 [0 0 0 0] ------- [1:255 -1:255 5 0] [0x2 1 3 [2 5] [1 12]] (REQUEST)
r 1.456159790 _0_ AGT  --- 53 ack 40 [13a 0 1 800] ------- [1:0 0:0 30 0] [7 0] 1 0
s 1.456159790 _0_ AGT  --- 85 tcp 1540 [0 0 0 0] ------- [0:0 1:0 32 0] [15 0] 0 0
r 1.456159790 _0_ RTR  --- 85 tcp 1540 [0 0 0 0] ------- [0:0 1:0 32 0] [15 0] 0 0
s 1.456159790 _0_ AGT  --- 86 tcp 1540 [0 0 0 0] ------- [0:0 1:0 32 0] [16 0] 0 0
r 1.456159790 _0_ RTR  --- 86 tcp 1540 [0 0 0 0] ------- [0:0 1:0 32 0] [16 0] 0 0
s 1.456159790 _0_ RTR  --- 85 tcp 1540 [0 0 0 0] ------- [0:0 1:0 30 1] [15 0] 0 0
s 1.456159790 _0_ RTR  --- 86 tcp 1540 [0 0 0 0] ------- [0:0 1:0 30 1] [16 0] 0 0
r 1.457412382 _1_ RTR  --- 0 AODV 48 [0 ffffffff 0 800] ------- [0:255 -1:255 2 0] [0x2 2 2 [2 5] [1 10]] (REQUEST)
r 1.458350973 _0_ RTR  --- 0 AODV 48 [0 ffffffff 1 800] ------- [1:255 -1:255 5 0] [0x2 1 3 [2 5] [1 12]] (REQUEST)
s 1.464000000 _1_ AGT  --- 87 cbr 1000 [0 0 0 0] ------- [1:1 2:0 32 0] [58] 0 0
r 1.464000000 _1_ RTR  --- 87 cbr 1000 [0 0 0 0] ------- [1:1 2:0 32 0] [58] 0 0
s 1.464212097 _0_ RTR  --- 0 AODV 48 [0 ffffffff 1 800] ------- [0:255 -1:255 4 0] [0x2 2 3 [2 5] [1 12]] (REQUEST)
s 1.472000000 _1_ AGT  --- 88 cbr 1000 [0 0 0 0] ------- [1:1 2:0 32 0] [59] 0 0
r 1.472000000 _1_ RTR  --- 88 cbr 1000 [0 0 0 0] ------- [1:1 2:0 32 0] [59] 0 0
r 1.472162746 _1_ AGT  --- 78 tcp 1540 [13a 1 0 800] ------- [0:0 1:0 30 1] [12 0] 1 0
s 1.472162746 _1_ AGT  --- 89 ack 40 [0 0 0 0] ------- [1:0 0:0 32 0] [12 0] 0 0
r 1.472162746 _1_ RTR  --- 89 ack 40 [0 0 0 0] ------- [1:0 0:0 32 0] [12 0] 0 0
s 1.472162746 _1_ RTR  --- 89 ack 40 [0 0 0 0] ------- [1:0 0:0 30 0] [12 0] 0 0
r 1.473435927 _1_ RTR  --- 0 AODV 48 [0 ffffffff 0 800] ------- [0:255 -1:255 4 0] [0x2 2 3 [2 5] [1 12]] (REQUEST)
r 1.475187699 _0_ AGT  --- 64 ack 40 [13a 0 1 800] ------- [1:0 0:0 30 0] [8 0] 1 0
s 1.475187699 _0_ AGT  --- 90 tcp 1540 [0 0 0 0] ------- [0:0 1:0 32 0] [17 0] 0 0
r 1.475187699 _0_ RTR  --- 90 tcp 1540 [0 0 0 0] ------- [0:0 1:0 32 0] [17 0] 0 0