V -t * -v 1.0a5 -a 0
A -t * -n 1 -p 0 -o 0x7fffffff -c 30 -a 1
A -t * -h 1 -m 1073741823 -s 0
n -t * -a 0 -s 0 -S UP -v circle -c black -i black
n -t * -a 1 -s 1 -S UP -v circle -c black -i black
n -t * -a 2 -s 2 -S UP -v circle -c black -i black
l -t * -s 0 -d 1 -S UP -r 100000000 -D 0.01 -c black -o right-down
l -t * -s 1 -d 2 -S UP -r 100000000 -D 0.01 -c black -o right-up
+ -t 1 -s 0 -d 1 -p cbr -e 1000 -c 0 -i 0 -a 0 -x {0.0 2.0 0 ------- null}
- -t 1 -s 0 -d 1 -p cbr -e 1000 -c 0 -i 0 -a 0 -x {0.0 2.0 0 ------- null}
h -t 1 -s 0 -d 1 -p cbr -e 1000 -c 0 -i 0 -a 0 -x {0.0 2.0 -1 ------- null}
+ -t 1.008 -s 0 -d 1 -p cbr -e 1000 -c 0 -i 1 -a 0 -x {0.0 2.0 1 ------- null}
- -t 1.008 -s 0 -d 1 -p cbr -e 1000 -c 0 -i 1 -a 0 -x {0.0 2.0 1 ------- null}
h -t 1.008 -s 0 -d 1 -p cbr -e 1000 -c 0 -i 1 -a 0 -x {0.0 2.0 -1 ------- null}
r -t 1.01008 -s 0 -d 1 -p cbr -e 1000 -c 0 -i 0 -a 0 -x {0.0 2.0 0 ------- null}
+ -t 1.01008 -s 1 -d 2 -p cbr -e 1000 -c 0 -i 0 -a 0 -x {0.0 2.0 0 ------- null}
- -t 1.01008 -s 1 -d 2 -p cbr -e 1000 -c 0 -i 0 -a 0 -x {0.0 2.0 0 ------- null}
h -t 1.01008 -s 1 -d 2 -p cbr -e 1000 -c 0 -i 0 -a 0 -x {0.0 2.0 -1 ------- null}
+ -t 1.016 -s 0 -d 1 -p cbr -e 1000 -c 0 -i 2 -a 0 -x {0.0 2.0 2 ------- null}
- -t 1.016 -s 0 -d 1 -p cbr -e 1000 -c 0 -i 2 -a 0 -x {0.0 2.0 2 ------- null}
h -t 1.016 -s 0 -d 1 -p cbr -e 1000 -c 0 -i 2 -a 0 -x {0.0 2.0 -1 ------- null}
r -t 1.01808 -s 0 -d 1 -p cbr -e 1000 -c 0 -i 1 -a 0 -x {0.0 2.0 1 ------- null}
+ -t 1.01808 -s 1 -d 2 -p cbr -e 1000 -c 0 -i 1 -a 0 -x {0.0 2.0 1 ------- null}
- -t 1.01808 -s 1 -d 2 -p cbr -e 1000 -c 0 -i 1 -a 0 -x {0.0 2.0 1 ------- null}
h -t 1.01808 -s 1 -d 2 -p cbr -e 1000 -c 0 -i 1 -a 0 -x {0.0 2.0 -1 ------- null}
r -t 1.02016 -s 1 -d 2 -p cbr -e 1000 -c 0 -i 0 -a 0 -x {0.0 2.0 0 ------- null}
+ -t 1.024 -s 0 -d 1 -p cbr -e 1000 -c 0 -i 3 -a 0 -x {0.0 2.0 3 ------- null}
- -t 1.024 -s 0 -d 1 -p cbr -e 1000 -c 0 -i 3 -a 0 -x {0.0 2.0 3 ------- null}
h -t 1.024 -s 0 -d 1 -p cbr -e 1000 -c 0 -i 3 -a 0 -x {0.0 2.0 -1 ------- null}
r -t 1.02608 -s 0 -d 1 -p cbr -e 1000 -c 0 -i 2 -a 0 -x {0.0 2.0 2 ------- null}
+ -t 1.02608 -s 1 -d 2 -p cbr -e 1000 -c 0 -i 2 -a 0 -x {0.0 2.0 2 ------- null}
- -t 1.02608 -s 1 -d 2 -p cbr -e 1000 -c 0 -i 2 -a 0 -x {0.0 2.0 2 ------- null}
h -t 1.02608 -s 1 -d 2 -p cbr -e 1000 -c 0 -i 2 -a 0 -x {0.0 2.0 -1 ------- null}
r -t 1.02816 -s 1 -d 2 -p cbr -e 1000 -c 0 -i 1 -a 0 -x {0.0 2.0 1 ------- null}
+ -t 1.032 -s 0 -d 1 -p cbr -e 1000 -c 0 -i 4 -a 0 -x {0.0 2.0 4 ------- null}
- -t 1.032 -s 0 -d 1 -p cbr -e 1000 -c 0 -i 4 -a 0 -x {0.0 2.0 4 ------- null}
h -t 1.032 -s 0 -d 1 -p cbr -e 1000 -c 0 -i 4 -a 0 -x {0.0 2.0 -1 ------- null}
r -t 1.03408 -s 0 -d 1 -p cbr -e 1000 -c 0 -i 3 -a 0 -x {0.0 2.0 3 ------- null}
+ -t 1.03408 -s 1 -d 2 -p cbr -e 1000 -c 0 -i 3 -a 0 -x {0.0 2.0 3 ------- null}
- -t 1.03408 -s 1 -d 2 -p cbr -e 1000 -c 0 -i 3 -a 0 -x {0.0 2.0 3 ------- null}
h -t 1.03408 -s 1 -d 2 -p cbr -e 1000 -c 0 -i 3 -a 0 -x {0.0 2.0 -1 ------- null}
r -t 1.03616 -s 1 -d 2 -p cbr -e 1000 -c 0 -i 2 -a 0 -x {0.0 2.0 2 ------- null}
+ -t 1.04 -s 0 -d 1 -p cbr -e 1000 -c 0 -i 5 -a 0 -x {0.0 2.0 5 ------- null}
- -t 1.04 -s 0 -d 1 -p cbr -e 1000 -c 0 -i 5 -a 0 -x {0.0 2.0 5 ------- null}
h -t 1.04 -s 0 -d 1 -p cbr -e 1000 -c 0 -i 5 -a 0 -x {0.0 2.0 -1 ------- null}
r -t 1.04208 -s 0 -d 1 -p cbr -e 1000 -c 0 -i 4 -a 0 -x {0.0 2.0 4 ------- null}
+ -t 1.04208 -s 1 -d 2 -p cbr -e 1000 -c 0 -i 4 -a 0 -x {0.0 2.0 4 ------- null}
- -t 1.04208 -s 1 -d 2 -p cbr -e 1000 -c 0 -i 4 -a 0 -x {0.0 2.0 4 ------- null}
h -t 1.04208 -s 1 -d 2 -p cbr -e 1000 -c 0 -i 4 -a 0 -x {0.0 2.0 -1 ------- null}
r -t 1.04416 -s 1 -d 2 -p cbr -e 1000 -c 0 -i 3 -a 0 -x {0.0 2.0 3 ------- null}
+ -t 1.048 -s 0 -d 1 -p cbr -e 1000 -c 0 -i 6 -a 0 -x {0.0 2.0 6 ------- null}
- -t 1.048 -s 0 -d 1 -p cbr -e 1000 -c 0 -i 6 -a 0 -x {0.0 2.0 6 ------- null}
h -t 1.048 -s 0 -d 1 -p cbr -e 1000 -c 0 -i 6 -a 0 -x {0.0 2.0 -1 ------- null}
r -t 1.05008 -s 0 -d 1 -p cbr -e 1000 -c 0 -i 5 -a 0 -x {0.0 2.0 5 ------- null}
+ -t 1.05008 -s 1 -d 2 -p cbr -e 1000 -c 0 -i 5 -a 0 -x {0.0 2.0 5 ------- null}
- -t 1.05008 -s 1 -d 2 -p cbr -e 1000 -c 0 -i 5 -a 0 -x {0.0 2.0 5 ------- null}
h -t 1.05008 -s 1 -d 2 -p cbr -e 1000 -c 0 -i 5 -a 0 -x {0.0 2.0 -1 ------- null}
r -t 1.05216 -s 1 -d 2 -p cbr -e 1000 -c 0 -i 4 -a 0 -x {0.0 2.0 4 ------- null}
+ -t 1.056 -s 0 -d 1 -p cbr -e 1000 -c 0 -i 7 -a 0 -x {0.0 2.0 7 ------- null}
- -t 1.056 -s 0 -d 1 -p cbr -e 1000 -c 0 -i 7 -a 0 -x {0.0 2.0 7 ------- null}
h -t 1.056 -s 0 -d 1 -p cbr -e 1000 -c 0 -i 7 -a 0 -x {0.0 2.0 -1 ------- null}
r -t 1.05808 -s 0 -d 1 -p cbr -e 1000 -c 0 -i 6 -a 0 -x {0.0 2.0 6 ------- null}
+ -t 1.05808 -s 1 -d 2 -p cbr -e 1000 -c 0 -i 6 -a 0 -x {0.0 2.0 6 ------- null}
- -t 1.05808 -s 1 -d 2 -p cbr -e 1000 -c 0 -i 6 -a 0 -x {0.0 2.0 6 ------- null}
h -t 1.05808 -s 1 -d 2 -p cbr -e 1000 -c 0 -i 6 -a 0 -x {0.0 2.0 -1 ------- null}
r -t 1.06016 -s 1 -d 2 -p cbr -e 1000 -c 0 -i 5 -a 0 -x {0.0 2.0 5 ------- null}
+ -t 1.064 -s 0 -d 1 -p cbr -e 1000 -c 0 -i 8 -a 0 -x {0.0 2.0 8 ------- null}
- -t 1.064 -s 0 -d 1 -p cbr -e 1000 -c 0 -i 8 -a 0 -x {0.0 2.0 8 ------- null}
h -t 1.064 -s 0 -d 1 -p cbr -e 1000 -c 0 -i 8 -a 0 -x {0.0 2.0 -1 ------- null}
r -t 1.06608 -s 0 -d 1 -p cbr -e 1000 -c 0 -i 7 -a 0 -x {0.0 2.0 7 ------- null}
+ -t 1.06608 -s 1 -d 2 -p cbr -e 1000 -c 0 -i 7 -a 0 -x {0.0 2.0 7 ------- null}
- -t 1.06608 -s 1 -d 2 -p cbr -e 1000 -c 0 -i 7 -a 0 -x {0.0 2.0 7 ------- null}
h -t 1.06608 -s 1 -d 2 -p cbr -e 1000 -c 0 -i 7 -a 0 -x {0.0 2.0 -1 ------- null}
r -t 1.06816 -s 1 -d 2 -p cbr -e 1000 -c 0 -i 6 -a 0 -x {0.0 2.0 6 ------- null}
+ -t 1.072 -s 0 -d 1 -p cbr -e 1000 -c 0 -i 9 -a 0 -x {0.0 2.0 9 ------- null}
- -t 1.072 -s 0 -d 1 -p cbr -e 1000 -c 0 -i 9 -a 0 -x {0.0 2.0 9 ------- null}
h -t 1.072 -s 0 -d 1 -p cbr -e 1000 -c 0 -i 9 -a 0 -x {0.0 2.0 -1 ------- null}
r -t 1.07408 -s 0 -d 1 -p cbr -e 1000 -c 0 -i 8 -a 0 -x {0.0 2.0 8 ------- null}
+ -t 1.07408 -s 1 -d 2 -p cbr -e 1000 -c 0 -i 8 -a 0 -x {0.0 2.0 8 ------- null}
- -t 1.07408 -s 1 -d 2 -p cbr -e 1000 -c 0 -i 8 -a 0 -x {0.0 2.0 8 ------- null}
h -t 1.07408 -s 1 -d 2 -p cbr -e 1000 -c 0 -i 8 -a 0 -x {0.0 2.0 -1 ------- null}
r -t 1.07616 -s 1 -d 2 -p cbr -e 1000 -c 0 -i 7 -a 0 -x {0.0 2.0 7 ------- null}
+ -t 1.08 -s 0 -d 1 -p cbr -e 1000 -c 0 -i 10 -a 0 -x {0.0 2.0 10 ------- null}
- -t 1.08 -s 0 -d 1 -p cbr -e 1000 -c 0 -i 10 -a 0 -x {0.0 2.0 10 ------- null}
h -t 1.08 -s 0 -d 1 -p cbr -e 1000 -c 0 -i 10 -a 0 -x {0.0 2.0 -1 ------- null}
r -t 1.08208 -s 0 -d 1 -p cbr -e 1000 -c 0 -i 9 -a 0 -x {0.0 2.0 9 ------- null}
+ -t 1.08208 -s 1 -d 2 -p cbr -e 1000 -c 0 -i 9 -a 0 -x {0.0 2.0 9 ------- null}
- -t 1.08208 -s 1 -d 2 -p cbr -e 1000 -c 0 -i 9 -a 0 -x {0.0 2.0 9 ------- null}
h -t 1.08208 -s 1 -d 2 -p cbr -e 1000 -c 0 -i 9 -a 0 -x {0.0 2.0 -1 ------- null}
r -t 1.08416 -s 1 -d 2 -p cbr -e 1000 -c 0 -i 8 -a 0 -x {0.0 2.0 8 ------- null}
+ -t 1.088 -s 0 -d 1 -p cbr -e 1000 -c 0 -i 11 -a 0 -x {0.0 2.0 11 ------- null}
- -t 1.088 -s 0 -d 1 -p cbr -e 1000 -c 0 -i 11 -a 0 -x {0.0 2.0 11 ------- null}
h -t 1.088 -s 0 -d 1 -p cbr -e 1000 -c 0 -i 11 -a 0 -x {0.0 2.0 -1 ------- null}
r -t 1.09008 -s 0 -d 1 -p cbr -e 1000 -c 0 -i 10 -a 0 -x {0.0 2.0 10 ------- null}
+ -t 1.09008 -s 1 -d 2 -p cbr -e 1000 -c 0 -i 10 -a 0 -x {0.0 2.0 10 ------- null}
- -t 1.09008 -s 1 -d 2 -p cbr -e 1000 -c 0 -i 10 -a 0 -x {0.0 2.0 10 ------- null}
h -t 1.09008 -s 1 -d 2 -p cbr -e 1000 -c 0 -i 10 -a 0 -x {0.0 2.0 -1 ------- null}
r -t 1.09216 -s 1 -d 2 -p cbr -e 1000 -c 0 -i 9 -a 0 -x {0.0 2.0 9 ------- null}
+ -t 1.096 -s 0 -d 1 -p cbr -e 1000 -c 0 -i 12 -a 0 -x {0.0 2.0 12 ------- null}
- -t 1.096 -s 0 -d 1 -p cbr -e 1000 -c 0 -i 12 -a 0 -x {0.0 2.0 12 ------- null}
h -t 1.096 -s 0 -d 1 -p cbr -e 1000 -c 0 -i 12 -a 0 -x {0.0 2.0 -1 ------- null}
r -t 1.09808 -s 0 -d 1 -p cbr -e 1000 -c 0 -i 11 -a 0 -x {0.0 2.0 11 ------- null}
+ -t 1.09808 -s 1 -d 2 -p cbr -e 1000 -c 0 -i 11 -a 0 -x {0.0 2.0 11 ------- null}
- -t 1.09808 -s 1 -d 2 -p cbr -e 1000 -c 0 -i 11 -a 0 -x {0.0 2.0 11 ------- null}
h -t 1.09808 -s 1 -d 2 -p cbr -e 1000 -c 0 -i 11 -a 0 -x {0.0 2.0 -1 ------- null}
r -t 1.10016 -s 1 -d 2 -p cbr -e 1000 -c 0 -i 10 -a 0 -x {0.0 2.0 10 ------- null}
+ -t 1.104 -s 0 -d 1 -p cbr -e 1000 -c 0 -i 13 -a 0 -x {0.0 2.0 13 ------- null}
- -t 1.104 -s 0 -d 1 -p cbr -e 1000 -c 0 -i 13 -a 0 -x {0.0 2.0 13 ------- null}
h -t 1.104 -s 0 -d 1 -p cbr -e 1000 -c 0 -i 13 -a 0 -x {0.0 2.0 -1 ------- null}
r -t 1.10608 -s 0 -d 1 -p cbr -e 1000 -c 0 -i 12 -a 0 -x {0.0 2.0 12 ------- null}
+ -t 1.10608 -s 1 -d 2 -p cbr -e 1000 -c 0 -i 12 -a 0 -x {0.0 2.0 12 ------- null}
- -t 1.10608 -s 1 -d 2 -p cbr -e 1000 -c 0 -i 12 -a 0 -x {0.0 2.0 12 ------- null}
h -t 1.10608 -s 1 -d 2 -p cbr -e 1000 -c 0 -i 12 -a 0 -x {0.0 2.0 -1 ------- null}
r -t 1.10816 -s 1 -d 2 -p cbr -e 1000 -c 0 -i 11 -a 0 -x {0.0 2.0 11 ------- null}
+ -t 1.112 -s 0 -d 1 -p cbr -e 1000 -c 0 -i 14 -a 0 -x {0.0 2.0 14 ------- null}
- -t 1.112 -s 0 -d 1 -p cbr -e 1000 -c 0 -i 14 -a 0 -x {0.0 2.0 14 ------- null}
h -t 1.112 -s 0 -d 1 -p cbr -e 1000 -c 0 -i 14 -a 0 -x {0.0 2.0 -1 ------- null}
r -t 1.11408 -s 0 -d 1 -p cbr -e 1000 -c 0 -i 13 -a 0 -x {0.0 2.0 13 ------- null}
+ -t 1.11408 -s 1 -d 2 -p cbr -e 1000 -c 0 -i 13 -a 0 -x {0.0 2.0 13 ------- null}
- -t 1.11408 -s 1 -d 2 -p cbr -e 1000 -c 0 -i 13 -a 0 -x {0.0 2.0 13 ------- null}
h -t 1.11408 -s 1 -d 2 -p cbr -e 1000 -c 0 -i 13 -a 0 -x {0.0 2.0 -1 ------- null}
r -t 1.11616 -s 1 -d 2 -p cbr -e 1000 -c 0 -i 12 -a 0 -x {0.0 2.0 12 ------- null}
+ -t 1.12 -s 0 -d 1 -p cbr -e 1000 -c 0 -i 15 -a 0 -x {0.0 2.0 15 ------- null}
- -t 1.12 -s 0 -d 1 -p cbr -e 1000 -c 0 -i 15 -a 0 -x {0.0 2.0 15 ------- null}
h -t 1.12 -s 0 -d 1 -p cbr -e 1000 -c 0 -i 15 -a 0 -x {0.0 2.0 -1 ------- null}
r -t 1.12208 -s 0 -d 1 -p cbr -e 1000 -c 0 -i 14 -a 0 -x {0.0 2.0 14 ------- null}
+ -t 1.12208 -s 1 -d 2 -p cbr -e 1000 -c 0 -i 14 -a 0 -x {0.0 2.0 14 ------- null}
- -t 1.12208 -s 1 -d 2 -p cbr -e 1000 -c 0 -i 14 -a 0 -x {0.0 2.0 14 ------- null}
h -t 1.12208 -s 1 -d 2 -p cbr -e 1000 -c 0 -i 14 -a 0 -x {0.0 2.0 -1 ------- null}
r -t 1.12416 -s 1 -d 2 -p cbr -e 1000 -c 0 -i 13 -a 0 -x {0.0 2.0 13 ------- null}
+ -t 1.128 -s 0 -d 1 -p cbr -e 1000 -c 0 -i 16 -a 0 -x {0.0 2.0 16 ------- null}
- -t 1.128 -s 0 -d 1 -p cbr -e 1000 -c 0 -i 16 -a 0 -x {0.0 2.0 16 ------- null}
h -t 1.128 -s 0 -d 1 -p cbr -e 1000 -c 0 -i 16 -a 0 -x {0.0 2.0 -1 ------- null}
r -t 1.13008 -s 0 -d 1 -p cbr -e 1000 -c 0 -i 15 -a 0 -x {0.0 2.0 15 ------- null}
+ -t 1.13008 -s 1 -d 2 -p cbr -e 1000 -c 0 -i 15 -a 0 -x {0.0 2.0 15 ------- null}
- -t 1.13008 -s 1 -d 2 -p cbr -e 1000 -c 0 -i 15 -a 0 -x {0.0 2.0 15 ------- null}
h -t 1.13008 -s 1 -d 2 -p cbr -e 1000 -c 0 -i 15 -a 0 -x {0.0 2.0 -1 ------- null}
r -t 1.13216 -s 1 -d 2 -p cbr -e 1000 -c 0 -i 14 -a 0 -x {0.0 2.0 14 ------- null}
+ -t 1.136 -s 0 -d 1 -p cbr -e 1000 -c 0 -i 17 -a 0 -x {0.0 2.0 17 ------- null}
- -t 1.136 -s 0 -d 1 -p cbr -e 1000 -c 0 -i 17 -a 0 -x {0.0 2.0 17 ------- null}
h -t 1.136 -s 0 -d 1 -p cbr -e 1000 -c 0 -i 17 -a 0 -x {0.0 2.0 -1 ------- null}
r -t 1.13808 -s 0 -d 1 -p cbr -e 1000 -c 0 -i 16 -a 0 -x {0.0 2.0 16 ------- null}
+ -t 1.13808 -s 1 -d 2 -p cbr -e 1000 -c 0 -i 16 -a 0 -x {0.0 2.0 16 ------- null}
- -t 1.13808 -s 1 -d 2 -p cbr -e 1000 -c 0 -i 16 -a 0 -x {0.0 2.0 16 ------- null}
h -t 1.13808 -s 1 -d 2 -p cbr -e 1000 -c 0 -i 16 -a 0 -x {0.0 2.0 -1 ------- null}
r -t 1.14016 -s 1 -d 2 -p cbr -e 1000 -c 0 -i 15 -a 0 -x {0.0 2.0 15 ------- null}
+ -t 1.144 -s 0 -d 1 -p cbr -e 1000 -c 0 -i 18 -a 0 -x {0.0 2.0 18 ------- null}
- -t 1.144 -s 0 -d 1 -p cbr -e 1000 -c 0 -i 18 -a 0 -x {0.0 2.0 18 ------- null}
h -t 1.144 -s 0 -d 1 -p cbr -e 1000 -c 0 -i 18 -a 0 -x {0.0 2.0 -1 ------- null}
r -t 1.14608 -s 0 -d 1 -p cbr -e 1000 -c 0 -i 17 -a 0 -x {0.0 2.0 17 ------- null}
+ -t 1.14608 -s 1 -d 2 -p cbr -e 1000 -c 0 -i 17 -a 0 -x {0.0 2.0 17 ------- null}
- -t 1.14608 -s 1 -d 2 -p cbr -e 1000 -c 0 -i 17 -a 0 -x {0.0 2.0 17 ------- null}
h -t 1.14608 -s 1 -d 2 -p cbr -e 1000 -c 0 -i 17 -a 0 -x {0.0 2.0 -1 ------- null}
r -t 1.14816 -s 1 -d 2 -p cbr -e 1000 -c 0 -i 16 -a 0 -x {0.0 2.0 16 ------- null}
+ -t 1.152 -s 0 -d 1 -p cbr -e 1000 -c 0 -i 19 -a 0 -x {0.0 2.0 19 ------- null}
- -t 1.152 -s 0 -d 1 -p cbr -e 1000 -c 0 -i 19 -a 0 -x {0.0 2.0 19 ------- null}
h -t 1.152 -s 0 -d 1 -p cbr -e 1000 -c 0 -i 19 -a 0 -x {0.0 2.0 -1 ------- null}
r -t 1.15408 -s 0 -d 1 -p cbr -e 1000 -c 0 -i 18 -a 0 -x {0.0 2.0 18 ------- null}
+ -t 1.15408 -s 1 -d 2 -p cbr -e 1000 -c 0 -i 18 -a 0 -x {0.0 2.0 18 ------- null}
- -t 1.15408 -s 1 -d 2 -p cbr -e 1000 -c 0 -i 18 -a 0 -x {0.0 2.0 18 ------- null}
h -t 1.15408 -s 1 -d 2 -p cbr -e 1000 -c 0 -i 18 -a 0 -x {0.0 2.0 -1 ------- null}
r -t 1.15616 -s 1 -d 2 -p cbr -e 1000 -c 0 -i 17 -a 0 -x {0.0 2.0 17 ------- null}
+ -t 1.16 -s 0 -d 1 -p cbr -e 1000 -c 0 -i 20 -a 0 -x {0.0 2.0 20 ------- null}
- -t 1.16 -s 0 -d 1 -p cbr -e 1000 -c 0 -i 20 -a 0 -x {0.0 2.0 20 ------- null}
h -t 1.16 -s 0 -d 1 -p cbr -e 1000 -c 0 -i 20 -a 0 -x {0.0 2.0 -1 ------- null}
r -t 1.16208 -s 0 -d 1 -p cbr -e 1000 -c 0 -i 19 -a 0 -x {0.0 2.0 19 ------- null}
+ -t 1.16208 -s 1 -d 2 -p cbr -e 1000 -c 0 -i 19 -a 0 -x {0.0 2.0 19 ------- null}
- -t 1.16208 -s 1 -d 2 -p cbr -e 1000 -c 0 -i 19 -a 0 -x {0.0 2.0 19 ------- null}
h -t 1.16208 -s 1 -d 2 -p cbr -e 1000 -c 0 -i 19 -a 0 -x {0.0 2.0 -1 ------- null}
r -t 1.16416 -s 1 -d 2 -p cbr -e 1000 -c 0 -i 18 -a 0 -x {0.0 2.0 18 ------- null}
+ -t 1.168 -s 0 -d 1 -p cbr -e 1000 -c 0 -i 21 -a 0 -x {0.0 2.0 21 ------- null}
- -t 1.168 -s 0 -d 1 -p cbr -e 1000 -c 0 -i 21 -a 0 -x {0.0 2.0 21 ------- null}
h -t 1.168 -s 0 -d 1 -p cbr -e 1000 -c 0 -i 21 -a 0 -x {0.0 2.0 -1 ------- null}
r -t 1.17008 -s 0 -d 1 -p cbr -e 1000 -c 0 -i 20 -a 0 -x {0.0 2.0 20 ------- null}
+ -t 1.17008 -s 1 -d 2 -p cbr -e 1000 -c 0 -i 20 -a 0 -x {0.0 2.0 20 ------- null}
- -t 1.17008 -s 1 -d 2 -p cbr -e 1000 -c 0 -i 20 -a 0 -x {0.0 2.0 20 ------- null}
h -t 1.17008 -s 1 -d 2 -p cbr -e 1000 -c 0 -i 20 -a 0 -x {0.0 2.0 -1 ------- null}
r -t 1.17216 -s 1 -d 2 -p cbr -e 1000 -c 0 -i 19 -a 0 -x {0.0 2.0 19 ------- null}
+ -t 1.176 -s 0 -d 1 -p cbr -e 1000 -c 0 -i 22 -a 0 -x {0.0 2.0 22 ------- null}
- -t 1.176 -s 0 -d 1 -p cbr -e 1000 -c 0 -i 22 -a 0 -x {0.0 2.0 22 ------- null}
h -t 1.176 -s 0 -d 1 -p cbr -e 1000 -c 0 -i 22 -a 0 -x {0.0 2.0 -1 ------- null}
r -t 1.17808 -s 0 -d 1 -p cbr -e 1000 -c 0 -i 21 -a 0 -x {0.0 2.0 21 ------- null}
+ -t 1.17808 -s 1 -d 2 -p cbr -e 1000 -c 0 -i 21 -a 0 -x {0.0 2.0 21 ------- null}
- -t 1.17808 -s 1 -d 2 -p cbr -e 1000 -c 0 -i 21 -a 0 -x {0.0 2.0 21 ------- null}
h -t 1.17808 -s 1 -d 2 -p cbr -e 1000 -c 0 -i 21 -a 0 -x {0.0 2.0 -1 ------- null}
r -t 1.18016 -s 1 -d 2 -p cbr -e 1000 -c 0 -i 20 -a 0 -x {0.0 2.0 20 ------- null}
+ -t 1.184 -s 0 -d 1 -p cbr -e 1000 -c 0 -i 23 -a 0 -x {0.0 2.0 23 ------- null}
- -t 1.184 -s 0 -d 1 -p cbr -e 1000 -c 0 -i 23 -a 0 -x {0.0 2.0 23 ------- null}
h -t 1.184 -s 0 -d 1 -p cbr -e 1000 -c 0 -i 23 -a 0 -x {0.0 2.0 -1 ------- null}
r -t 1.18608 -s 0 -d 1 -p cbr -e 1000 -c 0 -i 22 -a 0 -x {0.0 2.0 22 ------- null}
+ -t 1.18608 -s 1 -d 2 -p cbr -e 1000 -c 0 -i 22 -a 0 -x {0.0 2.0 22 ------- null}
- -t 1.18608 -s 1 -d 2 -p cbr -e 1000 -c 0 -i 22 -a 0 -x {0.0 2.0 22 ------- null}
h -t 1.18608 -s 1 -d 2 -p cbr -e 1000 -c 0 -i 22 -a 0 -x {0.0 2.0 -1 ------- null}
r -t 1.18816 -s 1 -d 2 -p cbr -e 1000 -c 0 -i 21 -a 0 -x {0.0 2.0 21 ------- null}
+ -t 1.192 -s 0 -d 1 -p cbr -e 1000 -c 0 -i 24 -a 0 -x {0.0 2.0 24 ------- null}
- -t 1.192 -s 0 -d 1 -p cbr -e 1000 -c 0 -i 24 -a 0 -x {0.0 2.0 24 ------- null}
h -t 1.192 -s 0 -d 1 -p cbr -e 1000 -c 0 -i 24 -a 0 -x {0.0 2.0 -1 ------- null}
r -t 1.19408 -s 0 -d 1 -p cbr -e 1000 -c 0 -i 23 -a 0 -x {0.0 2.0 23 ------- null}
+ -t 1.19408 -s 1 -d 2 -p cbr -e 1000 -c 0 -i 23 -a 0 -x {0.0 2.0 23 ------- null}
- -t 1.19408 -s 1 -d 2 -p cbr -e 1000 -c 0 -i 23 -a 0 -x {0.0 2.0 23 ------- null}
h -t 1.19408 -s 1 -d 2 -p cbr -e 1000 -c 0 -i 23 -a 0 -x {0.0 2.0 -1 ------- null}
r -t 1.19616 -s 1 -d 2 -p cbr -e 1000 -c 0 -i 22 -a 0 -x {0.0 2.0 22 ------- null}
+ -t 1.2 -s 0 -d 1 -p cbr -e 1000 -c 0 -i 25 -a 0 -x {0.0 2.0 25 ------- null}
- -t 1.2 -s 0 -d 1 -p cbr -e 1000 -c 0 -i 25 -a 0 -x {0.0 2.0 25 ------- null}
h -t 1.2 -s 0 -d 1 -p cbr -e 1000 -c 0 -i 25 -a 0 -x {0.0 2.0 -1 ------- null}
r -t 1.20208 -s 0 -d 1 -p cbr -e 1000 -c 0 -i 24 -a 0 -x {0.0 2.0 24 ------- null}
+ -t 1.20208 -s 1 -d 2 -p cbr -e 1000 -c 0 -i 24 -a 0 -x {0.0 2.0 24 ------- null}
- -t 1.20208 -s 1 -d 2 -p cbr -e 1000 -c 0 -i 24 -a 0 -x {0.0 2.0 24 ------- null}
h -t 1.20208 -s 1 -d 2 -p cbr -e 1000 -c 0 -i 24 -a 0 -x {0.0 2.0 -1 ------- null}
r -t 1.20416 -s 1 -d 2 -p cbr -e 1000 -c 0 -i 23 -a 0 -x {0.0 2.0 23 ------- null}
+ -t 1.208 -s 0 -d 1 -p cbr -e 1000 -c 0 -i 26 -a 0 -x {0.0 2.0 26 ------- null}
- -t 1.208 -s 0 -d 1 -p cbr -e 1000 -c 0 -i 26 -a 0 -x {0.0 2.0 26 ------- null}
h -t 1.208 -s 0 -d 1 -p cbr -e 1000 -c 0 -i 26 -a 0 -x {0.0 2.0 -1 ------- null}
r -t 1.21008 -s 0 -d 1 -p cbr -e 1000 -c 0 -i 25 -a 0 -x {0.0 2.0 25 ------- null}
+ -t 1.21008 -s 1 -d 2 -p cbr -e 1000 -c 0 -i 25 -a 0 -x {0.0 2.0 25 ------- null}
- -t 1.21008 -s 1 -d 2 -p cbr -e 1000 -c 0 -i 25 -a 0 -x {0.0 2.0 25 ------- null}
h -t 1.21008 -s 1 -d 2 -p cbr -e 1000 -c 0 -i 25 -a 0 -x {0.0 2.0 -1 ------- null}
r -t 1.21216 -s 1 -d 2 -p cbr -e 1000 -c 0 -i 24 -a 0 -x {0.0 2.0 24 ------- null}
+ -t 1.216 -s 0 -d 1 -p cbr -e 1000 -c 0 -i 27 -a 0 -x {0.0 2.0 27 ------- null}
- -t 1.216 -s 0 -d 1 -p cbr -e 1000 -c 0 -i 27 -a 0 -x {0.0 2.0 27 ------- null}
h -t 1.216 -s 0 -d 1 -p cbr -e 1000 -c 0 -i 27 -a 0 -x {0.0 2.0 -1 ------- null}
r -t 1.21808 -s 0 -d 1 -p cbr -e 1000 -c 0 -i 26 -a 0 -x {0.0 2.0 26 ------- null}
+ -t 1.21808 -s 1 -d 2 -p cbr -e 1000 -c 0 -i 26 -a 0 -x {0.0 2.0 26 ------- null}
- -t 1.21808 -s 1 -d 2 -p cbr -e 1000 -c 0 -i 26 -a 0 -x {0.0 2.0 26 ------- null}
h -t 1.21808 -s 1 -d 2 -p cbr -e 1000 -c 0 -i 26 -a 0 -x {0.0 2.0 -1 ------- null}
r -t 1.22016 -s 1 -d 2 -p cbr -e 1000 -c 0 -i 25 -a 0 -x {0.0 2.0 25 ------- null}
+ -t 1.224 -s 0 -d 1 -p cbr -e 1000 -c 0 -i 28 -a 0 -x {0.0 2.0 28 ------- null}
- -t 1.224 -s 0 -d 1 -p cbr -e 1000 -c 0 -i 28 -a 0 -x {0.0 2.0 28 ------- null}
h -t 1.224 -s 0 -d 1 -p cbr -e 1000 -c 0 -i 28 -a 0 -x {0.0 2.0 -1 ------- null}
r -t 1.22608 -s 0 -d 1 -p cbr -e 1000 -c 0 -i 27 -a 0 -x {0.0 2.0 27 ------- null}
+ -t 1.22608 -s 1 -d 2 -p cbr -e 1000 -c 0 -i 27 -a 0 -x {0.0 2.0 27 ------- null}
- -t 1.22608 -s 1 -d 2 -p cbr -e 1000 -c 0 -i 27 -a 0 -x {0.0 2.0 27 ------- null}
h -t 1.22608 -s 1 -d 2 -p cbr -e 1000 -c 0 -i 27 -a 0 -x {0.0 2.0 -1 ------- null}
r -t 1.22816 -s 1 -d 2 -p cbr -e 1000 -c 0 -i 26 -a 0 -x {0.0 2.0 26 ------- null}
+ -t 1.232 -s 0 -d 1 -p cbr -e 1000 -c 0 -i 29 -a 0 -x {0.0 2.0 29 ------- null}
- -t 1.232 -s 0 -d 1 -p cbr -e 1000 -c 0 -i 29 -a 0 -x {0.0 2.0 29 ------- null}
h -t 1.232 -s 0 -d 1 -p cbr -e 1000 -c 0 -i 29 -a 0 -x {0.0 2.0 -1 ------- null}
r -t 1.23408 -s 0 -d 1 -p cbr -e 1000 -c 0 -i 28 -a 0 -x {0.0 2.0 28 ------- null}
+ -t 1.23408 -s 1 -d 2 -p cbr -e 1000 -c 0 -i 28 -a 0 -x {0.0 2.0 28 ------- null}
- -t 1.23408 -s 1 -d 2 -p cbr -e 1000 -c 0 -i 28 -a 0 -x {0.0 2.0 28 ------- null}
h -t 1.23408 -s 1 -d 2 -p cbr -e 1000 -c 0 -i 28 -a 0 -x {0.0 2.0 -1 ------- null}
r -t 1.23616 -s 1 -d 2 -p cbr -e 1000 -c 0 -i 27 -a 0 -x {0.0 2.0 27 ------- null}
+ -t 1.24 -s 0 -d 1 -p cbr -e 1000 -c 0 -i 30 -a 0 -x {0.0 2.0 30 ------- null}
- -t 1.24 -s 0 -d 1 -p cbr -e 1000 -c 0 -i 30 -a 0 -x {0.0 2.0 30 ------- null}
h -t 1.24 -s 0 -d 1 -p cbr -e 1000 -c 0 -i 30 -a 0 -x {0.0 2.0 -1 ------- null}
r -t 1.24208 -s 0 -d 1 -p cbr -e 1000 -c 0 -i 29 -a 0 -x {0.0 2.0 29 ------- null}
+ -t 1.24208 -s 1 -d 2 -p cbr -e 1000 -c 0 -i 29 -a 0 -x {0.0 2.0 29 ------- null}
- -t 1.24208 -s 1 -d 2 -p cbr -e 1000 -c 0 -i 29 -a 0 -x {0.0 2.0 29 ------- null}
h -t 1.24208 -s 1 -d 2 -p cbr -e 1000 -c 0 -i 29 -a 0 -x {0.0 2.0 -1 ------- null}
r -t 1.24416 -s 1 -d 2 -p cbr -e 1000 -c 0 -i 28 -a 0 -x {0.0 2.0 28 ------- null}
+ -t 1.248 -s 0 -d 1 -p cbr -e 1000 -c 0 -i 31 -a 0 -x {0.0 2.0 31 ------- null}
- -t 1.248 -s 0 -d 1 -p cbr -e 1000 -c 0 -i 31 -a 0 -x {0.0 2.0 31 ------- null}
h -t 1.248 -s 0 -d 1 -p cbr -e 1000 -c 0 -i 31 -a 0 -x {0.0 2.0 -1 ------- null}
r -t 1.25008 -s 0 -d 1 -p cbr -e 1000 -c 0 -i 30 -a 0 -x {0.0 2.0 30 ------- null}
+ -t 1.25008 -s 1 -d 2 -p cbr -e 1000 -c 0 -i 30 -a 0 -x {0.0 2.0 30 ------- null}
- -t 1.25008 -s 1 -d 2 -p cbr -e 1000 -c 0 -i 30 -a 0 -x {0.0 2.0 30 ------- null}
h -t 1.25008 -s 1 -d 2 -p cbr -e 1000 -c 0 -i 30 -a 0 -x {0.0 2.0 -1 ------- null}
r -t 1.25216 -s 1 -d 2 -p cbr -e 1000 -c 0 -i 29 -a 0 -x {0.0 2.0 29 ------- null}
+ -t 1.256 -s 0 -d 1 -p cbr -e 1000 -c 0 -i 32 -a 0 -x {0.0 2.0 32 ------- null}
- -t 1.256 -s 0 -d 1 -p cbr -e 1000 -c 0 -i 32 -a 0 -x {0.0 2.0 32 ------- null}
h -t 1.256 -s 0 -d 1 -p cbr -e 1000 -c 0 -i 32 -a 0 -x {0.0 2.0 -1 ------- null}
r -t 1.25808 -s 0 -d 1 -p cbr -e 1000 -c 0 -i 31 -a 0 -x {0.0 2.0 31 ------- null}
+ -t 1.25808 -s 1 -d 2 -p cbr -e 1000 -c 0 -i 31 -a 0 -x {0.0 2.0 31 ------- null}
- -t 1.25808 -s 1 -d 2 -p cbr -e 1000 -c 0 -i 31 -a 0 -x {0.0 2.0 31 ------- null}
h -t 1.25808 -s 1 -d 2 -p cbr -e 1000 -c 0 -i 31 -a 0 -x {0.0 2.0 -1 ------- null}
r -t 1.26016 -s 1 -d 2 -p cbr -e 1000 -c 0 -i 30 -a 0 -x {0.0 2.0 30 ------- null}
+ -t 1.264 -s 0 -d 1 -p cbr -e 1000 -c 0 -i 33 -a 0 -x {0.0 2.0 33 ------- null}
- -t 1.264 -s 0 -d 1 -p cbr -e 1000 -c 0 -i 33 -a 0 -x {0.0 2.0 33 ------- null}
h -t 1.264 -s 0 -d 1 -p cbr -e 1000 -c 0 -i 33 -a 0 -x {0.0 2.0 -1 ------- null}
r -t 1.26608 -s 0 -d 1 -p cbr -e 1000 -c 0 -i 32 -a 0 -x {0.0 2.0 32 ------- null}
+ -t 1.26608 -s 1 -d 2 -p cbr -e 1000 -c 0 -i 32 -a 0 -x {0.0 2.0 32 ------- null}
- -t 1.26608 -s 1 -d 2 -p cbr -e 1000 -c 0 -i 32 -a 0 -x {0.0 2.0 32 ------- null}
h -t 1.26608 -s 1 -d 2 -p cbr -e 1000 -c 0 -i 32 -a 0 -x {0.0 2.0 -1 ------- null}
r -t 1.26816 -s 1 -d 2 -p cbr -e 1000 -c 0 -i 31 -a 0 -x {0.0 2.0 31 ------- null}
+ -t 1.272 -s 0 -d 1 -p cbr -e 1000 -c 0 -i 34 -a 0 -x {0.0 2.0 34 ------- null}
- -t 1.272 -s 0 -d 1 -p cbr -e 1000 -c 0 -i 34 -a 0 -x {0.0 2.0 34 ------- null}
h -t 1.272 -s 0 -d 1 -p cbr -e 1000 -c 0 -i 34 -a 0 -x {0.0 2.0 -1 ------- null}
r -t 1.27408 -s 0 -d 1 -p cbr -e 1000 -c 0 -i 33 -a 0 -x {0.0 2.0 33 ------- null}
+ -t 1.27408 -s 1 -d 2 -p cbr -e 1000 -c 0 -i 33 -a 0 -x {0.0 2.0 33 ------- null}
- -t 1.27408 -s 1 -d 2 -p cbr -e 1000 -c 0 -i 33 -a 0 -x {0.0 2.0 33 ------- null}
h -t 1.27408 -s 1 -d 2 -p cbr -e 1000 -c 0 -i 33 -a 0 -x {0.0 2.0 -1 ------- null}
r -t 1.27616 -s 1 -d 2 -p cbr -e 1000 -c 0 -i 32 -a 0 -x {0.0 2.0 32 ------- null}
+ -t 1.28 -s 0 -d 1 -p cbr -e 1000 -c 0 -i 35 -a 0 -x {0.0 2.0 35 ------- null}
- -t 1.28 -s 0 -d 1 -p cbr -e 1000 -c 0 -i 35 -a 0 -x {0.0 2.0 35 ------- null}
h -t 1.28 -s 0 -d 1 -p cbr -e 1000 -c 0 -i 35 -a 0 -x {0.0 2.0 -1 ------- null}
r -t 1.28208 -s 0 -d 1 -p cbr -e 1000 -c 0 -i 34 -a 0 -x {0.0 2.0 34 ------- null}
+ -t 1.28208 -s 1 -d 2 -p cbr -e 1000 -c 0 -i 34 -a 0 -x {0.0 2.0 34 ------- null}
- -t 1.28208 -s 1 -d 2 -p cbr -e 1000 -c 0 -i 34 -a 0 -x {0.0 2.0 34 ------- null}
h -t 1.28208 -s 1 -d 2 -p cbr -e 1000 -c 0 -i 34 -a 0 -x {0.0 2.0 -1 ------- null}
r -t 1.28416 -s 1 -d 2 -p cbr -e 1000 -c 0 -i 33 -a 0 -x {0.0 2.0 33 ------- null}
+ -t 1.288 -s 0 -d 1 -p cbr -e 1000 -c 0 -i 36 -a 0 -x {0.0 2.0 36 ------- null}
- -t 1.288 -s 0 -d 1 -p cbr -e 1000 -c 0 -i 36 -a 0 -x {0.0 2.0 36 ------- null}
h -t 1.288 -s 0 -d 1 -p cbr -e 1000 -c 0 -i 36 -a 0 -x {0.0 2.0 -1 ------- null}
r -t 1.29008 -s 0 -d 1 -p cbr -e 1000 -c 0 -i 35 -a 0 -x {0.0 2.0 35 ------- null}
+ -t 1.29008 -s 1 -d 2 -p cbr -e 1000 -c 0 -i 35 -a 0 -x {0.0 2.0 35 ------- null}
- -t 1.29008 -s 1 -d 2 -p cbr -e 1000 -c 0 -i 35 -a 0 -x {0.0 2.0 35 ------- null}
h -t 1.29008 -s 1 -d 2 -p cbr -e 1000 -c 0 -i 35 -a 0 -x {0.0 2.0 -1 ------- null}
r -t 1.29216 -s 1 -d 2 -p cbr -e 1000 -c 0 -i 34 -a 0 -x {0.0 2.0 34 ------- null}
+ -t 1.296 -s 0 -d 1 -p cbr -e 1000 -c 0 -i 37 -a 0 -x {0.0 2.0 37 ------- null}
- -t 1.296 -s 0 -d 1 -p cbr -e 1000 -c 0 -i 37 -a 0 -x {0.0 2.0 37 ------- null}
h -t 1.296 -s 0 -d 1 -p cbr -e 1000 -c 0 -i 37 -a 0 -x {0.0 2.0 -1 ------- null}
r -t 1.29808 -s 0 -d 1 -p cbr -e 1000 -c 0 -i 36 -a 0 -x {0.0 2.0 36 ------- null}
+ -t 1.29808 -s 1 -d 2 -p cbr -e 1000 -c 0 -i 36 -a 0 -x {0.0 2.0 36 ------- null}
- -t 1.29808 -s 1 -d 2 -p cbr -e 1000 -c 0 -i 36 -a 0 -x {0.0 2.0 36 ------- null}
h -t 1.29808 -s 1 -d 2 -p cbr -e 1000 -c 0 -i 36 -a 0 -x {0.0 2.0 -1 ------- null}
r -t 1.30016 -s 1 -d 2 -p cbr -e 1000 -c 0 -i 35 -a 0 -x {0.0 2.0 35 ------- null}
+ -t 1.304 -s 0 -d 1 -p cbr -e 1000 -c 0 -i 38 -a 0 -x {0.0 2.0 38 ------- null}
- -t 1.304 -s 0 -d 1 -p cbr -e 1000 -c 0 -i 38 -a 0 -x {0.0 2.0 38 ------- null}
h -t 1.304 -s 0 -d 1 -p cbr -e 1000 -c 0 -i 38 -a 0 -x {0.0 2.0 -1 ------- null}
r -t 1.30608 -s 0 -d 1 -p cbr -e 1000 -c 0 -i 37 -a 0 -x {0.0 2.0 37 ------- null}
+ -t 1.30608 -s 1 -d 2 -p cbr -e 1000 -c 0 -i 37 -a 0 -x {0.0 2.0 37 ------- null}
- -t 1.30608 -s 1 -d 2 -p cbr -e 1000 -c 0 -i 37 -a 0 -x {0.0 2.0 37 ------- null}
h -t 1.30608 -s 1 -d 2 -p cbr -e 1000 -c 0 -i 37 -a 0 -x {0.0 2.0 -1 ------- null}
r -t 1.30816 -s 1 -d 2 -p cbr -e 1000 -c 0 -i 36 -a 0 -x {0.0 2.0 36 ------- null}
+ -t 1.312 -s 0 -d 1 -p cbr -e 1000 -c 0 -i 39 -a 0 -x {0.0 2.0 39 ------- null}
- -t 1.312 -s 0 -d 1 -p cbr -e 1000 -c 0 -i 39 -a 0 -x {0.0 2.0 39 ------- null}
h -t 1.312 -s 0 -d 1 -p cbr -e 1000 -c 0 -i 39 -a 0 -x {0.0 2.0 -1 ------- null}
r -t 1.31408 -s 0 -d 1 -p cbr -e 1000 -c 0 -i 38 -a 0 -x {0.0 2.0 38 ------- null}
+ -t 1.31408 -s 1 -d 2 -p cbr -e 1000 -c 0 -i 38 -a 0 -x {0.0 2.0 38 ------- null}
- -t 1.31408 -s 1 -d 2 -p cbr -e 1000 -c 0 -i 38 -a 0 -x {0.0 2.0 38 ------- null}
h -t 1.31408 -s 1 -d 2 -p cbr -e 1000 -c 0 -i 38 -a 0 -x {0.0 2.0 -1 ------- null}
r -t 1.31616 -s 1 -d 2 -p cbr -e 1000 -c 0 -i 37 -a 0 -x {0.0 2.0 37 ------- null}
+ -t 1.32 -s 0 -d 1 -p cbr -e 1000 -c 0 -i 40 -a 0 -x {0.0 2.0 40 ------- null}
- -t 1.32 -s 0 -d 1 -p cbr -e 1000 -c 0 -i 40 -a 0 -x {0.0 2.0 40 ------- null}
h -t 1.32 -s 0 -d 1 -p cbr -e 1000 -c 0 -i 40 -a 0 -x {0.0 2.0 -1 ------- null}
r -t 1.32208 -s 0 -d 1 -p cbr -e 1000 -c 0 -i 39 -a 0 -x {0.0 2.0 39 ------- null}
+ -t 1.32208 -s 1 -d 2 -p cbr -e 1000 -c 0 -i 39 -a 0 -x {0.0 2.0 39 ------- null}
- -t 1.32208 -s 1 -d 2 -p cbr -e 1000 -c 0 -i 39 -a 0 -x {0.0 2.0 39 ------- null}
h -t 1.32208 -s 1 -d 2 -p cbr -e 1000 -c 0 -i 39 -a 0 -x {0.0 2.0 -1 ------- null}
r -t 1.32416 -s 1 -d 2 -p cbr -e 1000 -c 0 -i 38 -a 0 -x {0.0 2.0 38 ------- null}
+ -t 1.328 -s 0 -d 1 -p cbr -e 1000 -c 0 -i 41 -a 0 -x {0.0 2.0 41 ------- null}
- -t 1.328 -s 0 -d 1 -p cbr -e 1000 -c 0 -i 41 -a 0 -x {0.0 2.0 41 ------- null}
h -t 1.328 -s 0 -d 1 -p cbr -e 1000 -c 0 -i 41 -a 0 -x {0.0 2.0 -1 ------- null}
r -t 1.33008 -s 0 -d 1 -p cbr -e 1000 -c 0 -i 40 -a 0 -x {0.0 2.0 40 ------- null}
+ -t 1.33008 -s 1 -d 2 -p cbr -e 1000 -c 0 -i 40 -a 0 -x {0.0 2.0 40 ------- null}
- -t 1.33008 -s 1 -d 2 -p cbr -e 1000 -c 0 -i 40 -a 0 -x {0.0 2.0 40 ------- null}
h -t 1.33008 -s 1 -d 2 -p cbr -e 1000 -c 0 -i 40 -a 0 -x {0.0 2.0 -1 ------- null}
r -t 1.33216 -s 1 -d 2 -p cbr -e 1000 -c 0 -i 39 -a 0 -x {0.0 2.0 39 ------- null}
+ -t 1.336 -s 0 -d 1 -p cbr -e 1000 -c 0 -i 42 -a 0 -x {0.0 2.0 42 ------- null}
- -t 1.336 -s 0 -d 1 -p cbr -e 1000 -c 0 -i 42 -a 0 -x {0.0 2.0 42 ------- null}
h -t 1.336 -s 0 -d 1 -p cbr -e 1000 -c 0 -i 42 -a 0 -x {0.0 2.0 -1 ------- null}
r -t 1.33808 -s 0 -d 1 -p cbr -e 1000 -c 0 -i 41 -a 0 -x {0.0 2.0 41 ------- null}
+ -t 1.33808 -s 1 -d 2 -p cbr -e 1000 -c 0 -i 41 -a 0 -x {0.0 2.0 41 ------- null}
- -t 1.33808 -s 1 -d 2 -p cbr -e 1000 -c 0 -i 41 -a 0 -x {0.0 2.0 41 ------- null}
h -t 1.33808 -s 1 -d 2 -p cbr -e 1000 -c 0 -i 41 -a 0 -x {0.0 2.0 -1 ------- null}
r -t 1.34016 -s 1 -d 2 -p cbr -e 1000 -c 0 -i 40 -a 0 -x {0.0 2.0 40 ------- null}
+ -t 1.344 -s 0 -d 1 -p cbr -e 1000 -c 0 -i 43 -a 0 -x {0.0 2.0 43 ------- null}
- -t 1.344 -s 0 -d 1 -p cbr -e 1000 -c 0 -i 43 -a 0 -x {0.0 2.0 43 ------- null}
h -t 1.344 -s 0 -d 1 -p cbr -e 1000 -c 0 -i 43 -a 0 -x {0.0 2.0 -1 ------- null}
r -t 1.34608 -s 0 -d 1 -p cbr -e 1000 -c 0 -i 42 -a 0 -x {0.0 2.0 42 ------- null}
+ -t 1.34608 -s 1 -d 2 -p cbr -e 1000 -c 0 -i 42 -a 0 -x {0.0 2.0 42 ------- null}
- -t 1.34608 -s 1 -d 2 -p cbr -e 1000 -c 0 -i 42 -a 0 -x {0.0 2.0 42 ------- null}
h -t 1.34608 -s 1 -d 2 -p cbr -e 1000 -c 0 -i 42 -a 0 -x {0.0 2.0 -1 ------- null}
r -t 1.34816 -s 1 -d 2 -p cbr -e 1000 -c 0 -i 41 -a 0 -x {0.0 2.0 41 ------- null}
+ -t 1.352 -s 0 -d 1 -p cbr -e 1000 -c 0 -i 44 -a 0 -x {0.0 2.0 44 ------- null}
- -t 1.352 -s 0 -d 1 -p cbr -e 1000 -c 0 -i 44 -a 0 -x {0.0 2.0 44 ------- null}
h -t 1.352 -s 0 -d 1 -p cbr -e 1000 -c 0 -i 44 -a 0 -x {0.0 2.0 -1 ------- null}
r -t 1.35408 -s 0 -d 1 -p cbr -e 1000 -c 0 -i 43 -a 0 -x {0.0 2.0 43 ------- null}
+ -t 1.35408 -s 1 -d 2 -p cbr -e 1000 -c 0 -i 43 -a 0 -x {0.0 2.0 43 ------- null}
- -t 1.35408 -s 1 -d 2 -p cbr -e 1000 -c 0 -i 43 -a 0 -x {0.0 2.0 43 ------- null}
h -t 1.35408 -s 1 -d 2 -p cbr -e 1000 -c 0 -i 43 -a 0 -x {0.0 2.0 -1 ------- null}
r -t 1.35616 -s 1 -d 2 -p cbr -e 1000 -c 0 -i 42 -a 0 -x {0.0 2.0 42 ------- null}
+ -t 1.36 -s 0 -d 1 -p cbr -e 1000 -c 0 -i 45 -a 0 -x {0.0 2.0 45 ------- null}
- -t 1.36 -s 0 -d 1 -p cbr -e 1000 -c 0 -i 45 -a 0 -x {0.0 2.0 45 ------- null}
h -t 1.36 -s 0 -d 1 -p cbr -e 1000 -c 0 -i 45 -a 0 -x {0.0 2.0 -1 ------- null}
r -t 1.36208 -s 0 -d 1 -p cbr -e 1000 -c 0 -i 44 -a 0 -x {0.0 2.0 44 ------- null}
+ -t 1.36208 -s 1 -d 2 -p cbr -e 1000 -c 0 -i 44 -a 0 -x {0.0 2.0 44 ------- null}
- -t 1.36208 -s 1 -d 2 -p cbr -e 1000 -c 0 -i 44 -a 0 -x {0.0 2.0 44 ------- null}
h -t 1.36208 -s 1 -d 2 -p cbr -e 1000 -c 0 -i 44 -a 0 -x {0.0 2.0 -1 ------- null}
r -t 1.36416 -s 1 -d 2 -p cbr -e 1000 -c 0 -i 43 -a 0 -x {0.0 2.0 43 ------- null}